 Entering Gaussian System, Link 0=g16
 Initial command:
 /apps/gaussian/16-c02/avx2/g16/l1.exe "/blue/mingjieliu/adrian.gonzalezs/graphyne/gy2/2metal/gy2_CoCu_C/Gau-21129.inp" -scrdir="/blue/mingjieliu/adrian.gonzalezs/graphyne/gy2/2metal/gy2_CoCu_C/"
 Entering Link 1 = /apps/gaussian/16-c02/avx2/g16/l1.exe PID=     21131.
  
 Copyright (c) 1988-2021, Gaussian, Inc.  All Rights Reserved.
  
 This is part of the Gaussian(R) 16 program.  It is based on
 the Gaussian(R) 09 system (copyright 2009, Gaussian, Inc.),
 the Gaussian(R) 03 system (copyright 2003, Gaussian, Inc.),
 the Gaussian(R) 98 system (copyright 1998, Gaussian, Inc.),
 the Gaussian(R) 94 system (copyright 1995, Gaussian, Inc.),
 the Gaussian 92(TM) system (copyright 1992, Gaussian, Inc.),
 the Gaussian 90(TM) system (copyright 1990, Gaussian, Inc.),
 the Gaussian 88(TM) system (copyright 1988, Gaussian, Inc.),
 the Gaussian 86(TM) system (copyright 1986, Carnegie Mellon
 University), and the Gaussian 82(TM) system (copyright 1983,
 Carnegie Mellon University). Gaussian is a federally registered
 trademark of Gaussian, Inc.
  
 This software contains proprietary and confidential information,
 including trade secrets, belonging to Gaussian, Inc.
  
 This software is provided under written license and may be
 used, copied, transmitted, or stored only in accord with that
 written license.
  
 The following legend is applicable only to US Government
 contracts under FAR:
  
                    RESTRICTED RIGHTS LEGEND
  
 Use, reproduction and disclosure by the US Government is
 subject to restrictions as set forth in subparagraphs (a)
 and (c) of the Commercial Computer Software - Restricted
 Rights clause in FAR 52.227-19.
  
 Gaussian, Inc.
 340 Quinnipiac St., Bldg. 40, Wallingford CT 06492
  
  
 ---------------------------------------------------------------
 Warning -- This program may not be used in any manner that
 competes with the business of Gaussian, Inc. or will provide
 assistance to any competitor of Gaussian, Inc.  The licensee
 of this program is prohibited from giving any competitor of
 Gaussian, Inc. access to this program.  By using this program,
 the user acknowledges that Gaussian, Inc. is engaged in the
 business of creating and licensing software in the field of
 computational chemistry and represents and warrants to the
 licensee that it is not a competitor of Gaussian, Inc. and that
 it will not use this program in any manner prohibited above.
 ---------------------------------------------------------------
  

 Cite this work as:
 Gaussian 16, Revision C.02,
 M. J. Frisch, G. W. Trucks, H. B. Schlegel, G. E. Scuseria, 
 M. A. Robb, J. R. Cheeseman, G. Scalmani, V. Barone, 
 G. A. Petersson, H. Nakatsuji, X. Li, M. Caricato, A. V. Marenich, 
 J. Bloino, B. G. Janesko, R. Gomperts, B. Mennucci, H. P. Hratchian, 
 J. V. Ortiz, A. F. Izmaylov, J. L. Sonnenberg, D. Williams-Young, 
 F. Ding, F. Lipparini, F. Egidi, J. Goings, B. Peng, A. Petrone, 
 T. Henderson, D. Ranasinghe, V. G. Zakrzewski, J. Gao, N. Rega, 
 G. Zheng, W. Liang, M. Hada, M. Ehara, K. Toyota, R. Fukuda, 
 J. Hasegawa, M. Ishida, T. Nakajima, Y. Honda, O. Kitao, H. Nakai, 
 T. Vreven, K. Throssell, J. A. Montgomery, Jr., J. E. Peralta, 
 F. Ogliaro, M. J. Bearpark, J. J. Heyd, E. N. Brothers, K. N. Kudin, 
 V. N. Staroverov, T. A. Keith, R. Kobayashi, J. Normand, 
 K. Raghavachari, A. P. Rendell, J. C. Burant, S. S. Iyengar, 
 J. Tomasi, M. Cossi, J. M. Millam, M. Klene, C. Adamo, R. Cammi, 
 J. W. Ochterski, R. L. Martin, K. Morokuma, O. Farkas, 
 J. B. Foresman, and D. J. Fox, Gaussian, Inc., Wallingford CT, 2019.
 
 ******************************************
 Gaussian 16:  ES64L-G16RevC.02  7-Dec-2021
                23-Jan-2023 
 ******************************************
 %NProcShared=16
 Will use up to   16 processors via shared memory.
 -----------------------------
 #n B3LYP/6-31G(d) Opt scf=xqc
 -----------------------------
 1/18=20,19=15,26=3,38=1/1,3;
 2/9=110,12=2,17=6,18=5,40=1/2;
 3/5=1,6=6,7=1,11=2,25=1,30=1,71=1,74=-5/1,2,3;
 4//1;
 5/5=2,8=3,13=1,38=5/2,8;
 6/7=2,8=2,9=2,10=2,28=1/1;
 7//1,2,3,16;
 1/18=20,19=15,26=3/3(2);
 2/9=110/2;
 99//99;
 2/9=110/2;
 3/5=1,6=6,7=1,11=2,25=1,30=1,71=1,74=-5/1,2,3;
 4/5=5,16=3,69=1/1;
 5/5=2,8=3,13=1,38=5/2,8;
 7//1,2,3,16;
 1/18=20,19=15,26=3/3(-5);
 2/9=110/2;
 6/7=2,8=2,9=2,10=2,19=2,28=1/1;
 99/9=1/99;
 ----------
 gy2_CoCu_C
 ----------
 Symbolic Z-matrix:
 Charge =  0 Multiplicity = 1
 C                     6.39     -8.60829   0. 
 C                     5.68     -7.37854   0. 
 C                     4.26     -7.37854   0. 
 C                     3.55     -8.60829   0. 
 C                     4.26     -9.83805   0. 
 C                     5.68     -9.83805   0. 
 C                     6.39     -6.14878   0. 
 C                     3.55     -6.14878   0. 
 C                     7.1      -4.91902   0. 
 C                     2.84     -4.91902   0. 
 C                     7.81     -3.68927   0. 
 C                     2.13     -3.68927   0. 
 C                     8.52     -2.45951   0. 
 C                     1.42     -2.45951   0. 
 H                     7.48     -8.60829   0. 
 H                     2.46     -8.60829   0. 
 H                     3.715    -10.78202   0. 
 H                     6.225    -10.78202   0. 
 Cu                    4.97     -4.76829   0. 
 H                     12.45     0.        0. 
 H                     11.195   -2.17372   0. 
 H                     11.195    2.17372   0. 
 H                     8.685     2.17372   0. 
 C                     11.36     0.        0. 
 C                     10.65     1.22976   0. 
 C                     9.23      1.22976   0. 
 C                     8.52      0.        0. 
 C                     9.23     -1.22976   0. 
 C                     10.65    -1.22976   0. 
 Co                    6.61446  -1.92      0. 
 C                     7.1       0.        0. 
 C                     5.68      0.        0. 
 C                     4.26      0.        0. 
 C                     2.84      0.        0. 
 C                     1.42      0.        0. 
 C                     0.71      1.22976   0. 
 C                    -0.71      1.22976   0. 
 C                    -1.42      0.        0. 
 C                    -0.71     -1.22976   0. 
 C                     0.71     -1.22976   0. 
 H                     1.255     2.17372   0. 
 H                    -1.255     2.17372   0. 
 H                    -2.51      0.        0. 
 H                    -1.255    -2.17372   0. 
 

 GradGradGradGradGradGradGradGradGradGradGradGradGradGradGradGradGradGrad
 Berny optimization.
 Initialization pass.
                           ----------------------------
                           !    Initial Parameters    !
                           ! (Angstroms and Degrees)  !
 --------------------------                            --------------------------
 ! Name  Definition              Value          Derivative Info.                !
 --------------------------------------------------------------------------------
 ! R1    R(1,2)                  1.42           estimate D2E/DX2                !
 ! R2    R(1,6)                  1.42           estimate D2E/DX2                !
 ! R3    R(1,15)                 1.09           estimate D2E/DX2                !
 ! R4    R(2,3)                  1.42           estimate D2E/DX2                !
 ! R5    R(2,7)                  1.42           estimate D2E/DX2                !
 ! R6    R(3,4)                  1.42           estimate D2E/DX2                !
 ! R7    R(3,8)                  1.42           estimate D2E/DX2                !
 ! R8    R(4,5)                  1.42           estimate D2E/DX2                !
 ! R9    R(4,16)                 1.09           estimate D2E/DX2                !
 ! R10   R(5,6)                  1.42           estimate D2E/DX2                !
 ! R11   R(5,17)                 1.09           estimate D2E/DX2                !
 ! R12   R(6,18)                 1.09           estimate D2E/DX2                !
 ! R13   R(7,9)                  1.42           estimate D2E/DX2                !
 ! R14   R(7,19)                 1.9804         estimate D2E/DX2                !
 ! R15   R(8,10)                 1.42           estimate D2E/DX2                !
 ! R16   R(8,19)                 1.9804         estimate D2E/DX2                !
 ! R17   R(9,11)                 1.42           estimate D2E/DX2                !
 ! R18   R(9,19)                 2.1353         estimate D2E/DX2                !
 ! R19   R(10,12)                1.42           estimate D2E/DX2                !
 ! R20   R(10,19)                2.1353         estimate D2E/DX2                !
 ! R21   R(11,13)                1.42           estimate D2E/DX2                !
 ! R22   R(11,30)                2.1353         estimate D2E/DX2                !
 ! R23   R(12,14)                1.42           estimate D2E/DX2                !
 ! R24   R(13,28)                1.42           estimate D2E/DX2                !
 ! R25   R(13,30)                1.9804         estimate D2E/DX2                !
 ! R26   R(14,40)                1.42           estimate D2E/DX2                !
 ! R27   R(20,24)                1.09           estimate D2E/DX2                !
 ! R28   R(21,29)                1.09           estimate D2E/DX2                !
 ! R29   R(22,25)                1.09           estimate D2E/DX2                !
 ! R30   R(23,26)                1.09           estimate D2E/DX2                !
 ! R31   R(24,25)                1.42           estimate D2E/DX2                !
 ! R32   R(24,29)                1.42           estimate D2E/DX2                !
 ! R33   R(25,26)                1.42           estimate D2E/DX2                !
 ! R34   R(26,27)                1.42           estimate D2E/DX2                !
 ! R35   R(27,28)                1.42           estimate D2E/DX2                !
 ! R36   R(27,31)                1.42           estimate D2E/DX2                !
 ! R37   R(28,29)                1.42           estimate D2E/DX2                !
 ! R38   R(30,31)                1.9804         estimate D2E/DX2                !
 ! R39   R(30,32)                2.1353         estimate D2E/DX2                !
 ! R40   R(31,32)                1.42           estimate D2E/DX2                !
 ! R41   R(32,33)                1.42           estimate D2E/DX2                !
 ! R42   R(33,34)                1.42           estimate D2E/DX2                !
 ! R43   R(34,35)                1.42           estimate D2E/DX2                !
 ! R44   R(35,36)                1.42           estimate D2E/DX2                !
 ! R45   R(35,40)                1.42           estimate D2E/DX2                !
 ! R46   R(36,37)                1.42           estimate D2E/DX2                !
 ! R47   R(36,41)                1.09           estimate D2E/DX2                !
 ! R48   R(37,38)                1.42           estimate D2E/DX2                !
 ! R49   R(37,42)                1.09           estimate D2E/DX2                !
 ! R50   R(38,39)                1.42           estimate D2E/DX2                !
 ! R51   R(38,43)                1.09           estimate D2E/DX2                !
 ! R52   R(39,40)                1.42           estimate D2E/DX2                !
 ! R53   R(39,44)                1.09           estimate D2E/DX2                !
 ! A1    A(2,1,6)              120.0            estimate D2E/DX2                !
 ! A2    A(2,1,15)             120.0            estimate D2E/DX2                !
 ! A3    A(6,1,15)             120.0            estimate D2E/DX2                !
 ! A4    A(1,2,3)              120.0            estimate D2E/DX2                !
 ! A5    A(1,2,7)              120.0            estimate D2E/DX2                !
 ! A6    A(3,2,7)              120.0            estimate D2E/DX2                !
 ! A7    A(2,3,4)              120.0            estimate D2E/DX2                !
 ! A8    A(2,3,8)              120.0            estimate D2E/DX2                !
 ! A9    A(4,3,8)              120.0            estimate D2E/DX2                !
 ! A10   A(3,4,5)              120.0            estimate D2E/DX2                !
 ! A11   A(3,4,16)             120.0            estimate D2E/DX2                !
 ! A12   A(5,4,16)             120.0            estimate D2E/DX2                !
 ! A13   A(4,5,6)              120.0            estimate D2E/DX2                !
 ! A14   A(4,5,17)             120.0            estimate D2E/DX2                !
 ! A15   A(6,5,17)             120.0            estimate D2E/DX2                !
 ! A16   A(1,6,5)              120.0            estimate D2E/DX2                !
 ! A17   A(1,6,18)             120.0            estimate D2E/DX2                !
 ! A18   A(5,6,18)             120.0            estimate D2E/DX2                !
 ! A19   A(2,7,19)             104.1917         estimate D2E/DX2                !
 ! A20   A(3,8,19)             104.1917         estimate D2E/DX2                !
 ! A21   A(11,9,19)            115.9521         estimate D2E/DX2                !
 ! A22   A(12,10,19)           115.9521         estimate D2E/DX2                !
 ! A23   A(9,11,30)            115.9521         estimate D2E/DX2                !
 ! A24   A(28,13,30)           104.1917         estimate D2E/DX2                !
 ! A25   A(7,19,8)              91.6167         estimate D2E/DX2                !
 ! A26   A(7,19,10)            131.7605         estimate D2E/DX2                !
 ! A27   A(8,19,9)             131.7605         estimate D2E/DX2                !
 ! A28   A(20,24,25)           120.0            estimate D2E/DX2                !
 ! A29   A(20,24,29)           120.0            estimate D2E/DX2                !
 ! A30   A(25,24,29)           120.0            estimate D2E/DX2                !
 ! A31   A(22,25,24)           120.0            estimate D2E/DX2                !
 ! A32   A(22,25,26)           120.0            estimate D2E/DX2                !
 ! A33   A(24,25,26)           120.0            estimate D2E/DX2                !
 ! A34   A(23,26,25)           120.0            estimate D2E/DX2                !
 ! A35   A(23,26,27)           120.0            estimate D2E/DX2                !
 ! A36   A(25,26,27)           120.0            estimate D2E/DX2                !
 ! A37   A(26,27,28)           120.0            estimate D2E/DX2                !
 ! A38   A(26,27,31)           120.0            estimate D2E/DX2                !
 ! A39   A(28,27,31)           120.0            estimate D2E/DX2                !
 ! A40   A(13,28,27)           120.0            estimate D2E/DX2                !
 ! A41   A(13,28,29)           120.0            estimate D2E/DX2                !
 ! A42   A(27,28,29)           120.0            estimate D2E/DX2                !
 ! A43   A(21,29,24)           120.0            estimate D2E/DX2                !
 ! A44   A(21,29,28)           120.0            estimate D2E/DX2                !
 ! A45   A(24,29,28)           120.0            estimate D2E/DX2                !
 ! A46   A(11,30,31)           131.7605         estimate D2E/DX2                !
 ! A47   A(13,30,31)            91.6167         estimate D2E/DX2                !
 ! A48   A(13,30,32)           131.7605         estimate D2E/DX2                !
 ! A49   A(27,31,30)           104.1917         estimate D2E/DX2                !
 ! A50   A(30,32,33)           115.9521         estimate D2E/DX2                !
 ! A51   A(34,35,36)           120.0            estimate D2E/DX2                !
 ! A52   A(34,35,40)           120.0            estimate D2E/DX2                !
 ! A53   A(36,35,40)           120.0            estimate D2E/DX2                !
 ! A54   A(35,36,37)           120.0            estimate D2E/DX2                !
 ! A55   A(35,36,41)           120.0            estimate D2E/DX2                !
 ! A56   A(37,36,41)           120.0            estimate D2E/DX2                !
 ! A57   A(36,37,38)           120.0            estimate D2E/DX2                !
 ! A58   A(36,37,42)           120.0            estimate D2E/DX2                !
 ! A59   A(38,37,42)           120.0            estimate D2E/DX2                !
 ! A60   A(37,38,39)           120.0            estimate D2E/DX2                !
 ! A61   A(37,38,43)           120.0            estimate D2E/DX2                !
 ! A62   A(39,38,43)           120.0            estimate D2E/DX2                !
 ! A63   A(38,39,40)           120.0            estimate D2E/DX2                !
 ! A64   A(38,39,44)           120.0            estimate D2E/DX2                !
 ! A65   A(40,39,44)           120.0            estimate D2E/DX2                !
 ! A66   A(14,40,35)           120.0            estimate D2E/DX2                !
 ! A67   A(14,40,39)           120.0            estimate D2E/DX2                !
 ! A68   A(35,40,39)           120.0            estimate D2E/DX2                !
 ! A69   L(2,7,9,10,-1)        180.0            estimate D2E/DX2                !
 ! A70   L(3,8,10,9,-1)        180.0            estimate D2E/DX2                !
 ! A71   L(7,9,11,12,-1)       180.0            estimate D2E/DX2                !
 ! A72   L(8,10,12,11,-1)      180.0            estimate D2E/DX2                !
 ! A73   L(9,11,13,14,-1)      180.0            estimate D2E/DX2                !
 ! A74   L(10,12,14,13,-1)     180.0            estimate D2E/DX2                !
 ! A75   L(11,13,28,30,-1)     180.0            estimate D2E/DX2                !
 ! A76   L(12,14,40,20,-1)     180.0            estimate D2E/DX2                !
 ! A77   L(9,19,10,2,-1)       171.9043         estimate D2E/DX2                !
 ! A78   L(11,30,32,10,-1)     188.0957         estimate D2E/DX2                !
 ! A79   L(27,31,32,1,-1)      180.0            estimate D2E/DX2                !
 ! A80   L(31,32,33,1,-1)      180.0            estimate D2E/DX2                !
 ! A81   L(32,33,34,1,-1)      180.0            estimate D2E/DX2                !
 ! A82   L(33,34,35,1,-1)      180.0            estimate D2E/DX2                !
 ! A83   L(2,7,9,10,-2)        180.0            estimate D2E/DX2                !
 ! A84   L(3,8,10,9,-2)        180.0            estimate D2E/DX2                !
 ! A85   L(7,9,11,12,-2)       180.0            estimate D2E/DX2                !
 ! A86   L(8,10,12,11,-2)      180.0            estimate D2E/DX2                !
 ! A87   L(9,11,13,14,-2)      180.0            estimate D2E/DX2                !
 ! A88   L(10,12,14,13,-2)     180.0            estimate D2E/DX2                !
 ! A89   L(11,13,28,30,-2)     180.0            estimate D2E/DX2                !
 ! A90   L(12,14,40,20,-2)     180.0            estimate D2E/DX2                !
 ! A91   L(9,19,10,2,-2)       180.0            estimate D2E/DX2                !
 ! A92   L(11,30,32,10,-2)     180.0            estimate D2E/DX2                !
 ! A93   L(27,31,32,1,-2)      180.0            estimate D2E/DX2                !
 ! A94   L(31,32,33,1,-2)      180.0            estimate D2E/DX2                !
 ! A95   L(32,33,34,1,-2)      180.0            estimate D2E/DX2                !
 ! A96   L(33,34,35,1,-2)      180.0            estimate D2E/DX2                !
 ! D1    D(6,1,2,3)              0.0            estimate D2E/DX2                !
 ! D2    D(6,1,2,7)            180.0            estimate D2E/DX2                !
 ! D3    D(15,1,2,3)           180.0            estimate D2E/DX2                !
 ! D4    D(15,1,2,7)             0.0            estimate D2E/DX2                !
 ! D5    D(2,1,6,5)              0.0            estimate D2E/DX2                !
 ! D6    D(2,1,6,18)           180.0            estimate D2E/DX2                !
 ! D7    D(15,1,6,5)           180.0            estimate D2E/DX2                !
 ! D8    D(15,1,6,18)            0.0            estimate D2E/DX2                !
 ! D9    D(1,2,3,4)              0.0            estimate D2E/DX2                !
 ! D10   D(1,2,3,8)            180.0            estimate D2E/DX2                !
 ! D11   D(7,2,3,4)            180.0            estimate D2E/DX2                !
 ! D12   D(7,2,3,8)              0.0            estimate D2E/DX2                !
 ! D13   D(1,2,7,19)           180.0            estimate D2E/DX2                !
 ! D14   D(3,2,7,19)             0.0            estimate D2E/DX2                !
 ! D15   D(2,3,4,5)              0.0            estimate D2E/DX2                !
 ! D16   D(2,3,4,16)           180.0            estimate D2E/DX2                !
 ! D17   D(8,3,4,5)            180.0            estimate D2E/DX2                !
 ! D18   D(8,3,4,16)             0.0            estimate D2E/DX2                !
 ! D19   D(2,3,8,19)             0.0            estimate D2E/DX2                !
 ! D20   D(4,3,8,19)           180.0            estimate D2E/DX2                !
 ! D21   D(3,4,5,6)              0.0            estimate D2E/DX2                !
 ! D22   D(3,4,5,17)           180.0            estimate D2E/DX2                !
 ! D23   D(16,4,5,6)           180.0            estimate D2E/DX2                !
 ! D24   D(16,4,5,17)            0.0            estimate D2E/DX2                !
 ! D25   D(4,5,6,1)              0.0            estimate D2E/DX2                !
 ! D26   D(4,5,6,18)           180.0            estimate D2E/DX2                !
 ! D27   D(17,5,6,1)           180.0            estimate D2E/DX2                !
 ! D28   D(17,5,6,18)            0.0            estimate D2E/DX2                !
 ! D29   D(2,7,19,8)             0.0            estimate D2E/DX2                !
 ! D30   D(2,7,19,10)            0.0            estimate D2E/DX2                !
 ! D31   D(9,7,19,11)            0.0            estimate D2E/DX2                !
 ! D32   D(3,8,19,7)             0.0            estimate D2E/DX2                !
 ! D33   D(3,8,19,9)             0.0            estimate D2E/DX2                !
 ! D34   D(19,9,11,30)           0.0            estimate D2E/DX2                !
 ! D35   D(11,9,19,8)          180.0            estimate D2E/DX2                !
 ! D36   D(11,9,30,13)           0.0            estimate D2E/DX2                !
 ! D37   D(19,10,40,35)          0.0            estimate D2E/DX2                !
 ! D38   D(19,10,40,39)        180.0            estimate D2E/DX2                !
 ! D39   D(12,10,19,7)         180.0            estimate D2E/DX2                !
 ! D40   D(9,11,30,31)         180.0            estimate D2E/DX2                !
 ! D41   D(30,13,28,27)          0.0            estimate D2E/DX2                !
 ! D42   D(30,13,28,29)        180.0            estimate D2E/DX2                !
 ! D43   D(28,13,30,31)          0.0            estimate D2E/DX2                !
 ! D44   D(28,13,30,32)          0.0            estimate D2E/DX2                !
 ! D45   D(20,24,25,22)          0.0            estimate D2E/DX2                !
 ! D46   D(20,24,25,26)        180.0            estimate D2E/DX2                !
 ! D47   D(29,24,25,22)        180.0            estimate D2E/DX2                !
 ! D48   D(29,24,25,26)          0.0            estimate D2E/DX2                !
 ! D49   D(20,24,29,21)          0.0            estimate D2E/DX2                !
 ! D50   D(20,24,29,28)        180.0            estimate D2E/DX2                !
 ! D51   D(25,24,29,21)        180.0            estimate D2E/DX2                !
 ! D52   D(25,24,29,28)          0.0            estimate D2E/DX2                !
 ! D53   D(22,25,26,23)          0.0            estimate D2E/DX2                !
 ! D54   D(22,25,26,27)        180.0            estimate D2E/DX2                !
 ! D55   D(24,25,26,23)        180.0            estimate D2E/DX2                !
 ! D56   D(24,25,26,27)          0.0            estimate D2E/DX2                !
 ! D57   D(23,26,27,28)        180.0            estimate D2E/DX2                !
 ! D58   D(23,26,27,31)          0.0            estimate D2E/DX2                !
 ! D59   D(25,26,27,28)          0.0            estimate D2E/DX2                !
 ! D60   D(25,26,27,31)        180.0            estimate D2E/DX2                !
 ! D61   D(26,27,28,13)        180.0            estimate D2E/DX2                !
 ! D62   D(26,27,28,29)          0.0            estimate D2E/DX2                !
 ! D63   D(31,27,28,13)          0.0            estimate D2E/DX2                !
 ! D64   D(31,27,28,29)        180.0            estimate D2E/DX2                !
 ! D65   D(26,27,31,30)        180.0            estimate D2E/DX2                !
 ! D66   D(28,27,31,30)          0.0            estimate D2E/DX2                !
 ! D67   D(13,28,29,21)          0.0            estimate D2E/DX2                !
 ! D68   D(13,28,29,24)        180.0            estimate D2E/DX2                !
 ! D69   D(27,28,29,21)        180.0            estimate D2E/DX2                !
 ! D70   D(27,28,29,24)          0.0            estimate D2E/DX2                !
 ! D71   D(11,30,31,27)          0.0            estimate D2E/DX2                !
 ! D72   D(13,30,31,27)          0.0            estimate D2E/DX2                !
 ! D73   D(13,30,32,33)        180.0            estimate D2E/DX2                !
 ! D74   D(30,32,35,36)        180.0            estimate D2E/DX2                !
 ! D75   D(30,32,35,40)          0.0            estimate D2E/DX2                !
 ! D76   D(34,35,36,37)        180.0            estimate D2E/DX2                !
 ! D77   D(34,35,36,41)          0.0            estimate D2E/DX2                !
 ! D78   D(40,35,36,37)          0.0            estimate D2E/DX2                !
 ! D79   D(40,35,36,41)        180.0            estimate D2E/DX2                !
 ! D80   D(34,35,40,14)          0.0            estimate D2E/DX2                !
 ! D81   D(34,35,40,39)        180.0            estimate D2E/DX2                !
 ! D82   D(36,35,40,14)        180.0            estimate D2E/DX2                !
 ! D83   D(36,35,40,39)          0.0            estimate D2E/DX2                !
 ! D84   D(35,36,37,38)          0.0            estimate D2E/DX2                !
 ! D85   D(35,36,37,42)        180.0            estimate D2E/DX2                !
 ! D86   D(41,36,37,38)        180.0            estimate D2E/DX2                !
 ! D87   D(41,36,37,42)          0.0            estimate D2E/DX2                !
 ! D88   D(36,37,38,39)          0.0            estimate D2E/DX2                !
 ! D89   D(36,37,38,43)        180.0            estimate D2E/DX2                !
 ! D90   D(42,37,38,39)        180.0            estimate D2E/DX2                !
 ! D91   D(42,37,38,43)          0.0            estimate D2E/DX2                !
 ! D92   D(37,38,39,40)          0.0            estimate D2E/DX2                !
 ! D93   D(37,38,39,44)        180.0            estimate D2E/DX2                !
 ! D94   D(43,38,39,40)        180.0            estimate D2E/DX2                !
 ! D95   D(43,38,39,44)          0.0            estimate D2E/DX2                !
 ! D96   D(38,39,40,14)        180.0            estimate D2E/DX2                !
 ! D97   D(38,39,40,35)          0.0            estimate D2E/DX2                !
 ! D98   D(44,39,40,14)          0.0            estimate D2E/DX2                !
 ! D99   D(44,39,40,35)        180.0            estimate D2E/DX2                !
 --------------------------------------------------------------------------------
 Trust Radius=3.00D-01 FncErr=1.00D-07 GrdErr=1.00D-06 EigMax=2.50D+02 EigMin=1.00D-04
 Number of steps in this run=    258 maximum allowed number of steps=    264.
 GradGradGradGradGradGradGradGradGradGradGradGradGradGradGradGradGradGrad

                          Input orientation:                          
 ---------------------------------------------------------------------
 Center     Atomic      Atomic             Coordinates (Angstroms)
 Number     Number       Type             X           Y           Z
 ---------------------------------------------------------------------
      1          6           0        6.390000   -8.608293    0.000000
      2          6           0        5.680000   -7.378536    0.000000
      3          6           0        4.260000   -7.378536    0.000000
      4          6           0        3.550000   -8.608293    0.000000
      5          6           0        4.260000   -9.838049    0.000000
      6          6           0        5.680000   -9.838049    0.000000
      7          6           0        6.390000   -6.148780    0.000000
      8          6           0        3.550000   -6.148780    0.000000
      9          6           0        7.100000   -4.919024    0.000000
     10          6           0        2.840000   -4.919024    0.000000
     11          6           0        7.810000   -3.689268    0.000000
     12          6           0        2.130000   -3.689268    0.000000
     13          6           0        8.520000   -2.459512    0.000000
     14          6           0        1.420000   -2.459512    0.000000
     15          1           0        7.480000   -8.608293    0.000000
     16          1           0        2.460000   -8.608293    0.000000
     17          1           0        3.715000  -10.782016    0.000000
     18          1           0        6.225000  -10.782016    0.000000
     19         29           0        4.970000   -4.768293    0.000000
     20          1           0       12.450000    0.000000    0.000000
     21          1           0       11.195000   -2.173724    0.000000
     22          1           0       11.195000    2.173724    0.000000
     23          1           0        8.685000    2.173724    0.000000
     24          6           0       11.360000    0.000000    0.000000
     25          6           0       10.650000    1.229756    0.000000
     26          6           0        9.230000    1.229756    0.000000
     27          6           0        8.520000    0.000000    0.000000
     28          6           0        9.230000   -1.229756    0.000000
     29          6           0       10.650000   -1.229756    0.000000
     30         27           0        6.614462   -1.920000    0.000000
     31          6           0        7.100000    0.000000    0.000000
     32          6           0        5.680000    0.000000    0.000000
     33          6           0        4.260000    0.000000    0.000000
     34          6           0        2.840000    0.000000    0.000000
     35          6           0        1.420000    0.000000    0.000000
     36          6           0        0.710000    1.229756    0.000000
     37          6           0       -0.710000    1.229756    0.000000
     38          6           0       -1.420000    0.000000    0.000000
     39          6           0       -0.710000   -1.229756    0.000000
     40          6           0        0.710000   -1.229756    0.000000
     41          1           0        1.255000    2.173724    0.000000
     42          1           0       -1.255000    2.173724    0.000000
     43          1           0       -2.510000    0.000000    0.000000
     44          1           0       -1.255000   -2.173724    0.000000
 ---------------------------------------------------------------------
                    Distance matrix (angstroms):
                    1          2          3          4          5
     1  C    0.000000
     2  C    1.420000   0.000000
     3  C    2.459512   1.420000   0.000000
     4  C    2.840000   2.459512   1.420000   0.000000
     5  C    2.459512   2.840000   2.459512   1.420000   0.000000
     6  C    1.420000   2.459512   2.840000   2.459512   1.420000
     7  C    2.459512   1.420000   2.459512   3.756967   4.260000
     8  C    3.756967   2.459512   1.420000   2.459512   3.756967
     9  C    3.756967   2.840000   3.756967   5.119883   5.680000
    10  C    5.119883   3.756967   2.840000   3.756967   5.119883
    11  C    5.119883   4.260000   5.119883   6.507257   7.100000
    12  C    6.507257   5.119883   4.260000   5.119883   6.507257
    13  C    6.507257   5.680000   6.507257   7.906225   8.520000
    14  C    7.906225   6.507257   5.680000   6.507257   7.906225
    15  H    1.090000   2.179977   3.446839   3.930000   3.446839
    16  H    3.930000   3.446839   2.179977   1.090000   2.179977
    17  H    3.446839   3.930000   3.446839   2.179977   1.090000
    18  H    2.179977   3.446839   3.930000   3.446839   2.179977
    19  Cu   4.094142   2.705083   2.705083   4.094142   5.119231
    20  H   10.527407  10.013776  11.023561  12.381951  12.800910
    21  H    8.030672   7.583225   8.670888   9.992482  10.336155
    22  H   11.804232  11.030000  11.804232  13.217333  13.870000
    23  H   11.023561  10.013776  10.527407  11.942366  12.800910
    24  C    9.940000   9.311563  10.239766  11.623201  12.132485
    25  C   10.720765   9.940000  10.720765  12.132485  12.780000
    26  C   10.239766   9.311563   9.940000  11.360000  12.132485
    27  C    8.867897   7.906225   8.520000   9.940000  10.720765
    28  C    7.906225   7.100000   7.906225   9.311563   9.940000
    29  C    8.520000   7.906225   8.867897  10.239766  10.720765
    30  Co   6.692058   5.537945   5.944671   7.356914   8.260689
    31  C    8.637523   7.513934   7.906225   9.311563  10.239766
    32  C    8.637523   7.378536   7.513934   8.867897   9.940000
    33  C    8.867897   7.513934   7.378536   8.637523   9.838049
    34  C    9.311563   7.906225   7.513934   8.637523   9.940000
    35  C    9.940000   8.520000   7.906225   8.867897  10.239766
    36  C   11.360000   9.940000   9.311563  10.239766  11.623201
    37  C   12.132485  10.720765   9.940000  10.720765  12.132485
    38  C   11.623201  10.239766   9.311563   9.940000  11.360000
    39  C   10.239766   8.867897   7.906225   8.520000   9.940000
    40  C    9.311563   7.906225   7.100000   7.906225   9.311563
    41  H   11.942366  10.527407  10.013776  11.023561  12.381951
    42  H   13.217333  11.804232  11.030000  11.804232  13.217333
    43  H   12.381951  11.023561  10.013776  10.527407  11.942366
    44  H    9.992482   8.670888   7.583225   8.030672   9.442304
                    6          7          8          9         10
     6  C    0.000000
     7  C    3.756967   0.000000
     8  C    4.260000   2.840000   0.000000
     9  C    5.119883   1.420000   3.756967   0.000000
    10  C    5.680000   3.756967   1.420000   4.260000   0.000000
    11  C    6.507257   2.840000   4.919024   1.420000   5.119883
    12  C    7.100000   4.919024   2.840000   5.119883   1.420000
    13  C    7.906225   4.260000   6.189636   2.840000   6.189636
    14  C    8.520000   6.189636   4.260000   6.189636   2.840000
    15  H    2.179977   2.690223   4.636173   3.708787   5.927925
    16  H    3.446839   4.636173   2.690223   5.927925   3.708787
    17  H    2.179977   5.350000   4.636173   6.770000   5.927925
    18  H    1.090000   4.636173   5.350000   5.927925   6.770000
    19  Cu   5.119231   1.980441   1.980441   2.135327   2.135327
    20  H   11.942366   8.633140  10.817463   7.267689  10.795782
    21  H    9.442304   6.236113   8.616676   4.930081   8.794470
    22  H   13.217333   9.610000  11.300889   8.190000  10.959612
    23  H   12.381951   8.633140   9.779177   7.267689   9.190816
    24  C   11.360000   7.906225   9.940000   6.507257   9.838049
    25  C   12.132485   8.520000  10.239766   7.100000   9.940000
    26  C   11.623201   7.906225   9.311563   6.507257   8.867897
    27  C   10.239766   6.507257   7.906225   5.119883   7.513934
    28  C    9.311563   5.680000   7.513934   4.260000   7.378536
    29  C    9.940000   6.507257   8.637523   5.119883   8.637523
    30  Co   7.972999   4.234733   5.222405   3.038074   4.820862
    31  C    9.940000   6.189637   7.100000   4.919024   6.507257
    32  C    9.838049   6.189637   6.507257   5.119883   5.680000
    33  C    9.940000   6.507257   6.189637   5.680000   5.119883
    34  C   10.239766   7.100000   6.189637   6.507257   4.919024
    35  C   10.720765   7.906225   6.507257   7.513934   5.119883
    36  C   12.132485   9.311563   7.906225   8.867897   6.507257
    37  C   12.780000  10.239766   8.520000   9.940000   7.100000
    38  C   12.132485   9.940000   7.906225   9.838049   6.507257
    39  C   10.720765   8.637523   6.507257   8.637523   5.119883
    40  C    9.940000   7.513934   5.680000   7.378536   4.260000
    41  H   12.800910   9.779177   8.633140   9.190816   7.267689
    42  H   13.870000  11.300889   9.610000  10.959612   8.190000
    43  H   12.800910  10.817463   8.633140  10.795782   7.267689
    44  H   10.336155   8.616676   6.236113   8.794470   4.930081
                   11         12         13         14         15
    11  C    0.000000
    12  C    5.680000   0.000000
    13  C    1.420000   6.507257   0.000000
    14  C    6.507257   1.420000   7.100000   0.000000
    15  H    4.930081   7.267689   6.236113   8.633140   0.000000
    16  H    7.267689   4.930081   8.633140   6.236113   5.020000
    17  H    8.190000   7.267689   9.610000   8.633140   4.347448
    18  H    7.267689   8.190000   8.633140   9.610000   2.510000
    19  Cu   3.038074   3.038074   4.234733   4.234733   4.587559
    20  H    5.927925  10.959612   4.636173  11.300889   9.940000
    21  H    3.708787   9.190816   2.690223   9.779177   7.430000
    22  H    6.770000  10.795782   5.350000  10.817463  11.404083
    23  H    5.927925   8.794470   4.636173   8.616676  10.849143
    24  C    5.119883   9.940000   3.756967  10.239766   9.442304
    25  C    5.680000   9.838049   4.260000   9.940000  10.336155
    26  C    5.119883   8.637523   3.756967   8.637523   9.992482
    27  C    3.756967   7.378536   2.459512   7.513934   8.670888
    28  C    2.840000   7.513934   1.420000   7.906225   7.583225
    29  C    3.756967   8.867897   2.459512   9.311563   8.030672
    30  Co   2.135327   4.820862   1.980441   5.222405   6.744065
    31  C    3.756967   6.189636   2.840000   6.189637   8.616676
    32  C    4.260000   5.119883   3.756967   4.919024   8.794470
    33  C    5.119883   4.260000   4.919024   3.756967   9.190816
    34  C    6.189636   3.756967   6.189637   2.840000   9.779177
    35  C    7.378536   3.756967   7.513934   2.459512  10.527407
    36  C    8.637523   5.119883   8.637523   3.756967  11.942366
    37  C    9.838049   5.680000   9.940000   4.260000  12.800910
    38  C    9.940000   5.119883  10.239766   3.756967  12.381951
    39  C    8.867897   3.756967   9.311563   2.459512  11.023561
    40  C    7.513934   2.840000   7.906225   1.420000  10.013776
    41  H    8.794470   5.927925   8.616676   4.636173  12.450000
    42  H   10.795782   6.770000  10.817463   5.350000  13.876314
    43  H   10.959612   5.927925  11.300889   4.636173  13.187221
    44  H    9.190816   3.708787   9.779177   2.690223  10.849143
                   16         17         18         19         20
    16  H    0.000000
    17  H    2.510000   0.000000
    18  H    4.347448   2.510000   0.000000
    19  Cu   4.587559   6.143281   6.143281   0.000000
    20  H   13.187221  13.876314  12.450000   8.870570   0.000000
    21  H   10.849143  11.404083   9.940000   6.744065   2.510000
    22  H   13.876314  14.960000  13.876314   9.324281   2.510000
    23  H   12.450000  13.876314  13.187221   7.873552   4.347448
    24  C   12.381951  13.217333  11.942366   7.972999   1.090000
    25  C   12.800910  13.870000  12.800910   8.260689   2.179977
    26  C   11.942366  13.217333  12.381951   7.356914   3.446839
    27  C   10.527407  11.804232  11.023561   5.944671   3.930000
    28  C   10.013776  11.030000  10.013776   5.537945   3.446839
    29  C   11.023561  11.804232  10.527407   6.692058   2.179977
    30  Co   7.873552   9.324281   8.870570   3.288925   6.143281
    31  C    9.779177  11.300889  10.817463   5.222405   5.350000
    32  C    9.190816  10.959612  10.795782   4.820862   6.770000
    33  C    8.794470  10.795782  10.959612   4.820862   8.190000
    34  C    8.616676  10.817463  11.300889   5.222405   9.610000
    35  C    8.670888  11.023561  11.804232   5.944671  11.030000
    36  C    9.992482  12.381951  13.217333   7.356914  11.804232
    37  C   10.336155  12.800910  13.870000   8.260689  13.217333
    38  C    9.442304  11.942366  13.217333   7.972999  13.870000
    39  C    8.030672  10.527407  11.804232   6.692058  13.217333
    40  C    7.583225  10.013776  11.030000   5.537945  11.804232
    41  H   10.849143  13.187221  13.876314   7.873552  11.404083
    42  H   11.404083  13.876314  14.960000   9.324281  13.876314
    43  H    9.940000  12.450000  13.876314   8.870570  14.960000
    44  H    7.430000   9.940000  11.404083   6.744065  13.876314
                   21         22         23         24         25
    21  H    0.000000
    22  H    4.347448   0.000000
    23  H    5.020000   2.510000   0.000000
    24  C    2.179977   2.179977   3.446839   0.000000
    25  C    3.446839   1.090000   2.179977   1.420000   0.000000
    26  C    3.930000   2.179977   1.090000   2.459512   1.420000
    27  C    3.446839   3.446839   2.179977   2.840000   2.459512
    28  C    2.179977   3.930000   3.446839   2.459512   2.840000
    29  C    1.090000   3.446839   3.930000   1.420000   2.459512
    30  Co   4.587559   6.143281   4.587559   5.119231   5.119231
    31  C    4.636173   4.636173   2.690223   4.260000   3.756967
    32  C    5.927925   5.927925   3.708787   5.680000   5.119883
    33  C    7.267689   7.267689   4.930081   7.100000   6.507257
    34  C    8.633140   8.633140   6.236113   8.520000   7.906225
    35  C   10.013776  10.013776   7.583225   9.940000   9.311563
    36  C   11.023561  10.527407   8.030672  10.720765   9.940000
    37  C   12.381951  11.942366   9.442304  12.132485  11.360000
    38  C   12.800910  12.800910  10.336155  12.780000  12.132485
    39  C   11.942366  12.381951   9.992482  12.132485  11.623201
    40  C   10.527407  11.023561   8.670888  10.720765  10.239766
    41  H   10.849143   9.940000   7.430000  10.336155   9.442304
    42  H   13.187221  12.450000   9.940000  12.800910  11.942366
    43  H   13.876314  13.876314  11.404083  13.870000  13.217333
    44  H   12.450000  13.187221  10.849143  12.800910  12.381951
                   26         27         28         29         30
    26  C    0.000000
    27  C    1.420000   0.000000
    28  C    2.459512   1.420000   0.000000
    29  C    2.840000   2.459512   1.420000   0.000000
    30  Co   4.094142   2.705083   2.705083   4.094142   0.000000
    31  C    2.459512   1.420000   2.459512   3.756967   1.980441
    32  C    3.756967   2.840000   3.756967   5.119883   2.135327
    33  C    5.119883   4.260000   5.119883   6.507257   3.038074
    34  C    6.507257   5.680000   6.507257   7.906225   4.234733
    35  C    7.906225   7.100000   7.906225   9.311563   5.537945
    36  C    8.520000   7.906225   8.867897  10.239766   6.692058
    37  C    9.940000   9.311563  10.239766  11.623201   7.972999
    38  C   10.720765   9.940000  10.720765  12.132485   8.260689
    39  C   10.239766   9.311563   9.940000  11.360000   7.356914
    40  C    8.867897   7.906225   8.520000   9.940000   5.944671
    41  H    8.030672   7.583225   8.670888   9.992482   6.744065
    42  H   10.527407  10.013776  11.023561  12.381951   8.870570
    43  H   11.804232  11.030000  11.804232  13.217333   9.324281
    44  H   11.023561  10.013776  10.527407  11.942366   7.873552
                   31         32         33         34         35
    31  C    0.000000
    32  C    1.420000   0.000000
    33  C    2.840000   1.420000   0.000000
    34  C    4.260000   2.840000   1.420000   0.000000
    35  C    5.680000   4.260000   2.840000   1.420000   0.000000
    36  C    6.507257   5.119883   3.756967   2.459512   1.420000
    37  C    7.906225   6.507257   5.119883   3.756967   2.459512
    38  C    8.520000   7.100000   5.680000   4.260000   2.840000
    39  C    7.906225   6.507257   5.119883   3.756967   2.459512
    40  C    6.507257   5.119883   3.756967   2.459512   1.420000
    41  H    6.236113   4.930081   3.708787   2.690223   2.179977
    42  H    8.633140   7.267689   5.927925   4.636173   3.446839
    43  H    9.610000   8.190000   6.770000   5.350000   3.930000
    44  H    8.633140   7.267689   5.927925   4.636173   3.446839
                   36         37         38         39         40
    36  C    0.000000
    37  C    1.420000   0.000000
    38  C    2.459512   1.420000   0.000000
    39  C    2.840000   2.459512   1.420000   0.000000
    40  C    2.459512   2.840000   2.459512   1.420000   0.000000
    41  H    1.090000   2.179977   3.446839   3.930000   3.446839
    42  H    2.179977   1.090000   2.179977   3.446839   3.930000
    43  H    3.446839   2.179977   1.090000   2.179977   3.446839
    44  H    3.930000   3.446839   2.179977   1.090000   2.179977
                   41         42         43         44
    41  H    0.000000
    42  H    2.510000   0.000000
    43  H    4.347448   2.510000   0.000000
    44  H    5.020000   4.347448   2.510000   0.000000
 Stoichiometry    C30H12CoCu
 Framework group  CS[SG(C30H12CoCu)]
 Deg. of freedom    85
 Full point group                 CS      NOp   2
 Largest Abelian subgroup         CS      NOp   2
 Largest concise Abelian subgroup C1      NOp   1
                         Standard orientation:                         
 ---------------------------------------------------------------------
 Center     Atomic      Atomic             Coordinates (Angstroms)
 Number     Number       Type             X           Y           Z
 ---------------------------------------------------------------------
      1          6           0       -3.884799   -4.246738    0.000000
      2          6           0       -2.655043   -3.536738    0.000000
      3          6           0       -1.425287   -4.246738    0.000000
      4          6           0       -1.425287   -5.666738    0.000000
      5          6           0       -2.655043   -6.376738    0.000000
      6          6           0       -3.884799   -5.666738    0.000000
      7          6           0       -2.655043   -2.116738    0.000000
      8          6           0       -0.195531   -3.536738    0.000000
      9          6           0       -2.655043   -0.696738    0.000000
     10          6           0        1.034225   -2.826738    0.000000
     11          6           0       -2.655043    0.723262    0.000000
     12          6           0        2.263981   -2.116738    0.000000
     13          6           0       -2.655043    2.143262   -0.000000
     14          6           0        3.493737   -1.406738    0.000000
     15          1           0       -4.828767   -3.701738    0.000000
     16          1           0       -0.481319   -6.211738    0.000000
     17          1           0       -2.655043   -7.466738    0.000000
     18          1           0       -4.828767   -6.211738    0.000000
     19         29           0       -0.735043   -1.631201    0.000000
     20          1           0       -4.828767    6.238262   -0.000000
     21          1           0       -4.828767    3.728262   -0.000000
     22          1           0       -2.655043    7.493262   -0.000000
     23          1           0       -0.481319    6.238262   -0.000000
     24          6           0       -3.884799    5.693262   -0.000000
     25          6           0       -2.655043    6.403262   -0.000000
     26          6           0       -1.425287    5.693262   -0.000000
     27          6           0       -1.425287    4.273262   -0.000000
     28          6           0       -2.655043    3.563262   -0.000000
     29          6           0       -3.884799    4.273262   -0.000000
     30         27           0       -0.735043    1.657724   -0.000000
     31          6           0       -0.195531    3.563262   -0.000000
     32          6           0        1.034225    2.853262   -0.000000
     33          6           0        2.263981    2.143262   -0.000000
     34          6           0        3.493737    1.433262   -0.000000
     35          6           0        4.723493    0.723262   -0.000000
     36          6           0        5.953249    1.433262   -0.000000
     37          6           0        7.183005    0.723262   -0.000000
     38          6           0        7.183005   -0.696738   -0.000000
     39          6           0        5.953249   -1.406738   -0.000000
     40          6           0        4.723493   -0.696738   -0.000000
     41          1           0        5.953249    2.523262   -0.000000
     42          1           0        8.126973    1.268262   -0.000000
     43          1           0        8.126973   -1.241738   -0.000000
     44          1           0        5.953249   -2.496738    0.000000
 ---------------------------------------------------------------------
 Rotational constants (GHZ):           0.1022136           0.0973524           0.0498619
 Standard basis: 6-31G(d) (6D, 7F)
 There are   408 symmetry adapted cartesian basis functions of A'  symmetry.
 There are   144 symmetry adapted cartesian basis functions of A"  symmetry.
 There are   404 symmetry adapted basis functions of A'  symmetry.
 There are   142 symmetry adapted basis functions of A"  symmetry.
   546 basis functions,  1096 primitive gaussians,   552 cartesian basis functions
   124 alpha electrons      124 beta electrons
       nuclear repulsion energy      3498.3509417141 Hartrees.
 NAtoms=   44 NActive=   44 NUniq=   44 SFac= 1.00D+00 NAtFMM=   60 NAOKFM=F Big=F
 Integral buffers will be    131072 words long.
 Raffenetti 2 integral format.
 Two-electron integral symmetry is turned on.
 One-electron integrals computed using PRISM.
 PrsmSu:  requested number of processors reduced to:  12 ShMem   1 Linda.
 NBasis=   546 RedAO= T EigKep=  3.41D-05  NBF=   404   142
 NBsUse=   546 1.00D-06 EigRej= -1.00D+00 NBFU=   404   142
 ExpMin= 4.30D-02 ExpMax= 7.68D+04 ExpMxC= 1.15D+04 IAcc=3 IRadAn=         5 AccDes= 0.00D+00
 Harris functional with IExCor=  402 and IRadAn=       5 diagonalized for initial guess.
 HarFok:  IExCor=  402 AccDes= 0.00D+00 IRadAn=         5 IDoV= 1 UseB2=F ITyADJ=14
 ICtDFT=  3500011 ScaDFX=  1.000000  1.000000  1.000000  1.000000
 FoFCou: FMM=F IPFlag=           0 FMFlag=      100000 FMFlg1=           0
         NFxFlg=           0 DoJE=T BraDBF=F KetDBF=T FulRan=T
         wScrn=  0.000000 ICntrl=       500 IOpCl=  0 I1Cent=   200000004 NGrid=           0
         NMat0=    1 NMatS0=      1 NMatT0=    0 NMatD0=    1 NMtDS0=    0 NMtDT0=    0
 Petite list used in FoFCou.
 Initial guess orbital symmetries:
       Occupied  (A') (A') (A') (A') (A') (A") (A') (A') (A') (A")
                 (A') (A') (A') (A') (A') (A') (A') (A') (A') (A')
                 (A') (A') (A') (A') (A') (A') (A') (A') (A') (A')
                 (A') (A') (A') (A') (A') (A') (A') (A') (A') (A')
                 (A') (A') (A') (A') (A") (A') (A') (A") (A') (A')
                 (A') (A') (A') (A') (A') (A') (A') (A') (A') (A')
                 (A') (A') (A') (A') (A') (A') (A') (A') (A') (A')
                 (A') (A') (A') (A') (A') (A') (A') (A') (A') (A')
                 (A') (A') (A') (A') (A') (A') (A') (A') (A') (A')
                 (A") (A') (A') (A') (A") (A") (A') (A') (A") (A")
                 (A') (A") (A") (A") (A") (A') (A") (A") (A") (A')
                 (A') (A") (A') (A") (A") (A') (A") (A') (A") (A')
                 (A') (A") (A") (A")
       Virtual   (A') (A") (A') (A") (A") (A') (A") (A") (A') (A")
                 (A') (A") (A") (A') (A') (A") (A') (A') (A') (A")
                 (A') (A") (A') (A") (A') (A') (A') (A") (A') (A')
                 (A") (A') (A") (A') (A') (A') (A') (A") (A') (A')
                 (A') (A') (A') (A') (A') (A') (A') (A') (A') (A')
                 (A') (A') (A') (A') (A") (A') (A') (A') (A") (A')
                 (A') (A') (A') (A') (A') (A') (A') (A') (A') (A')
                 (A') (A') (A') (A') (A') (A') (A') (A') (A") (A')
                 (A') (A") (A") (A') (A') (A') (A") (A') (A') (A')
                 (A') (A") (A') (A") (A") (A') (A") (A') (A') (A')
                 (A') (A") (A') (A") (A') (A") (A') (A") (A') (A")
                 (A") (A") (A") (A') (A") (A') (A') (A") (A") (A')
                 (A") (A") (A') (A') (A') (A') (A") (A') (A') (A")
                 (A') (A") (A') (A') (A') (A') (A') (A') (A') (A")
                 (A') (A') (A') (A') (A") (A') (A') (A") (A') (A')
                 (A') (A') (A') (A') (A') (A") (A") (A') (A') (A')
                 (A') (A') (A') (A') (A') (A') (A') (A") (A') (A')
                 (A') (A') (A') (A') (A') (A') (A') (A') (A') (A')
                 (A') (A') (A') (A') (A") (A') (A') (A') (A') (A")
                 (A") (A") (A') (A') (A") (A') (A") (A') (A') (A')
                 (A') (A') (A") (A") (A') (A') (A") (A") (A") (A")
                 (A') (A") (A') (A") (A") (A') (A") (A') (A") (A")
                 (A") (A') (A") (A') (A') (A") (A') (A') (A") (A')
                 (A") (A") (A') (A") (A') (A") (A") (A') (A') (A')
                 (A') (A') (A') (A") (A') (A') (A') (A') (A") (A')
                 (A') (A') (A") (A') (A") (A') (A') (A') (A') (A')
                 (A") (A') (A") (A") (A') (A") (A') (A') (A') (A')
                 (A") (A') (A') (A') (A') (A") (A') (A') (A') (A")
                 (A') (A') (A') (A') (A') (A") (A") (A') (A') (A')
                 (A") (A') (A') (A') (A') (A') (A') (A') (A") (A")
                 (A") (A') (A") (A") (A") (A") (A') (A') (A") (A")
                 (A") (A') (A") (A") (A') (A") (A") (A') (A') (A')
                 (A') (A') (A") (A') (A") (A') (A") (A") (A') (A')
                 (A') (A') (A') (A') (A") (A') (A") (A') (A") (A')
                 (A") (A") (A') (A') (A') (A") (A') (A') (A") (A")
                 (A') (A') (A') (A') (A') (A') (A') (A') (A') (A')
                 (A') (A') (A') (A') (A') (A') (A') (A") (A') (A")
                 (A') (A') (A') (A") (A') (A') (A') (A') (A') (A')
                 (A') (A') (A') (A') (A') (A') (A') (A') (A') (A')
                 (A') (A') (A') (A') (A') (A') (A') (A') (A') (A')
                 (A') (A') (A') (A') (A') (A') (A') (A') (A') (A')
                 (A') (A') (A') (A') (A') (A') (A') (A') (A') (A')
                 (A') (A')
 The electronic state of the initial guess is 1-A'.
 Requested convergence on RMS density matrix=1.00D-08 within  32 cycles.
 Requested convergence on MAX density matrix=1.00D-06.
 Requested convergence on             energy=1.00D-06.
 No special actions if energy rises.
 EnCoef did     5 forward-backward iterations
 EnCoef did   100 forward-backward iterations
 EnCoef did   100 forward-backward iterations
 EnCoef did   100 forward-backward iterations
 EnCoef did   100 forward-backward iterations
 EnCoef did     5 forward-backward iterations
 EnCoef did     1 forward-backward iterations
 EnCoef did     6 forward-backward iterations
 EnCoef did   100 forward-backward iterations
 EnCoef did   100 forward-backward iterations
 EnCoef did     2 forward-backward iterations
 EnCoef did     1 forward-backward iterations
 EnCoef did     4 forward-backward iterations
 EnCoef did     1 forward-backward iterations
 EnCoef did     7 forward-backward iterations
 Restarting incremental Fock formation.
 Rare condition: small coef for last iteration:  0.000D+00
 Rare condition: small coef for last iteration:  0.000D+00
 >>>>>>>>>> Convergence criterion not met.
 SCF Done:  E(RB3LYP) =  -4172.72851844     A.U. after   33 cycles
            NFock= 32  Conv=0.23D-04     -V/T= 2.0047
 LinEq1:  Iter=  0 NonCon=     1 RMS=2.04D-05 Max=3.86D-03 NDo=     1
 AX will form     1 AO Fock derivatives at one time.
 LinEq1:  Iter=  1 NonCon=     1 RMS=6.19D-05 Max=3.60D-03 NDo=     1
 LinEq1:  Iter=  2 NonCon=     1 RMS=1.40D-04 Max=1.83D-02 NDo=     1
 LinEq1:  Iter=  3 NonCon=     1 RMS=1.72D-04 Max=1.55D-02 NDo=     1
 LinEq1:  Iter=  4 NonCon=     1 RMS=1.39D-04 Max=1.66D-02 NDo=     1
 LinEq1:  Iter=  5 NonCon=     1 RMS=1.76D-04 Max=2.15D-02 NDo=     1
 LinEq1:  Iter=  6 NonCon=     1 RMS=1.99D-04 Max=1.20D-02 NDo=     1
 LinEq1:  Iter=  7 NonCon=     1 RMS=3.03D-04 Max=1.87D-02 NDo=     1
 LinEq1:  Iter=  8 NonCon=     1 RMS=4.08D-04 Max=3.20D-02 NDo=     1
 LinEq1:  Iter=  9 NonCon=     1 RMS=4.40D-04 Max=4.51D-02 NDo=     1
 LinEq1:  Iter= 10 NonCon=     1 RMS=3.84D-04 Max=2.76D-02 NDo=     1
 LinEq1:  Iter= 11 NonCon=     1 RMS=5.46D-04 Max=3.58D-02 NDo=     1
 LinEq1:  Iter= 12 NonCon=     1 RMS=5.35D-04 Max=3.39D-02 NDo=     1
 LinEq1:  Iter= 13 NonCon=     1 RMS=5.47D-04 Max=2.88D-02 NDo=     1
 LinEq1:  Iter= 14 NonCon=     1 RMS=6.06D-04 Max=4.38D-02 NDo=     1
 LinEq1:  Iter= 15 NonCon=     1 RMS=6.56D-04 Max=3.71D-02 NDo=     1
 LinEq1:  Iter= 16 NonCon=     1 RMS=5.00D-04 Max=2.28D-02 NDo=     1
 LinEq1:  Iter= 17 NonCon=     1 RMS=4.43D-04 Max=2.71D-02 NDo=     1
 LinEq1:  Iter= 18 NonCon=     1 RMS=3.64D-04 Max=2.24D-02 NDo=     1
 LinEq1:  Iter= 19 NonCon=     1 RMS=4.35D-04 Max=2.52D-02 NDo=     1
 LinEq1:  Iter= 20 NonCon=     1 RMS=4.34D-04 Max=2.21D-02 NDo=     1
 LinEq1:  Iter= 21 NonCon=     1 RMS=2.29D-04 Max=1.31D-02 NDo=     1
 LinEq1:  Iter= 22 NonCon=     1 RMS=1.63D-04 Max=8.73D-03 NDo=     1
 LinEq1:  Iter= 23 NonCon=     1 RMS=1.04D-04 Max=6.49D-03 NDo=     1
 LinEq1:  Iter= 24 NonCon=     1 RMS=5.54D-05 Max=3.68D-03 NDo=     1
 LinEq1:  Iter= 25 NonCon=     1 RMS=4.47D-05 Max=2.60D-03 NDo=     1
 LinEq1:  Iter= 26 NonCon=     1 RMS=4.85D-05 Max=3.76D-03 NDo=     1
 LinEq1:  Iter= 27 NonCon=     1 RMS=2.79D-05 Max=1.85D-03 NDo=     1
 LinEq1:  Iter= 28 NonCon=     1 RMS=2.18D-05 Max=1.14D-03 NDo=     1
 LinEq1:  Iter= 29 NonCon=     1 RMS=1.15D-05 Max=5.80D-04 NDo=     1
 LinEq1:  Iter= 30 NonCon=     1 RMS=7.01D-06 Max=3.05D-04 NDo=     1
 LinEq1:  Iter= 31 NonCon=     1 RMS=5.60D-06 Max=3.09D-04 NDo=     1
 LinEq1:  Iter= 32 NonCon=     1 RMS=2.56D-06 Max=1.16D-04 NDo=     1
 LinEq1:  Iter= 33 NonCon=     1 RMS=1.37D-06 Max=5.61D-05 NDo=     1
 LinEq1:  Iter= 34 NonCon=     1 RMS=9.56D-07 Max=5.17D-05 NDo=     1
 LinEq1:  Iter= 35 NonCon=     1 RMS=4.18D-07 Max=1.33D-05 NDo=     1
 LinEq1:  Iter= 36 NonCon=     1 RMS=2.83D-07 Max=1.15D-05 NDo=     1
 LinEq1:  Iter= 37 NonCon=     1 RMS=1.14D-07 Max=3.56D-06 NDo=     1
 LinEq1:  Iter= 38 NonCon=     1 RMS=7.42D-08 Max=2.62D-06 NDo=     1
 LinEq1:  Iter= 39 NonCon=     1 RMS=4.87D-08 Max=2.00D-06 NDo=     1
 LinEq1:  Iter= 40 NonCon=     1 RMS=2.74D-08 Max=1.00D-06 NDo=     1
 LinEq1:  Iter= 41 NonCon=     1 RMS=1.68D-08 Max=8.56D-07 NDo=     1
 LinEq1:  Iter= 42 NonCon=     1 RMS=5.96D-09 Max=2.15D-07 NDo=     1
 LinEq1:  Iter= 43 NonCon=     1 RMS=4.25D-09 Max=1.98D-07 NDo=     1
 LinEq1:  Iter= 44 NonCon=     0 RMS=1.82D-09 Max=7.28D-08 NDo=     1
 Linear equations converged to 8.726D-09 8.726D-08 after    44 iterations.
     Accept linear search using points  1 and  2.
     Minimum is close to point  2 DX= -5.06D-03 DF= -1.55D-11 DXR=  5.08D-03 DFR=  2.64D-05 which will be used.
 SCF Done:  E(RB3LYP) =  -4172.72853469     a.u. after    2 cycles
            Convg  =    0.3061D-05                    46 Fock formations.
              S**2 =  0.0000                  -V/T =  2.0047

 **********************************************************************

            Population analysis using the SCF Density.

 **********************************************************************

 Orbital symmetries:
       Occupied  (A') (A') (A') (A') (A') (A") (A') (A') (A") (A')
                 (A') (A') (A') (A') (A') (A') (A') (A') (A') (A')
                 (A') (A') (A') (A') (A') (A') (A') (A') (A') (A')
                 (A') (A') (A') (A') (A') (A') (A') (A') (A') (A')
                 (A') (A') (A') (A') (A") (A') (A') (A") (A') (A')
                 (A') (A') (A') (A') (A') (A') (A') (A') (A') (A')
                 (A') (A') (A') (A') (A') (A') (A') (A') (A') (A')
                 (A') (A') (A') (A') (A') (A') (A') (A') (A') (A')
                 (A') (A') (A') (A') (A') (A') (A') (A") (A") (A")
                 (A') (A') (A') (A') (A') (A') (A') (A") (A') (A")
                 (A') (A") (A') (A") (A") (A") (A') (A') (A") (A")
                 (A") (A") (A') (A") (A') (A') (A") (A") (A") (A')
                 (A") (A') (A") (A')
       Virtual   (A") (A") (A') (A") (A') (A") (A') (A') (A") (A")
                 (A") (A") (A") (A") (A') (A') (A') (A') (A') (A")
                 (A') (A') (A") (A') (A') (A') (A') (A") (A') (A')
                 (A") (A') (A') (A') (A') (A') (A') (A') (A') (A')
                 (A") (A') (A") (A') (A') (A') (A") (A') (A") (A")
                 (A') (A') (A') (A') (A') (A') (A') (A') (A') (A')
                 (A') (A') (A') (A') (A') (A') (A') (A') (A') (A')
                 (A') (A') (A') (A') (A') (A") (A') (A") (A') (A')
                 (A') (A') (A") (A') (A") (A') (A') (A') (A") (A")
                 (A') (A") (A') (A") (A') (A") (A') (A') (A') (A")
                 (A') (A') (A') (A') (A") (A") (A') (A") (A') (A")
                 (A') (A") (A") (A") (A') (A') (A") (A') (A") (A")
                 (A") (A') (A') (A') (A') (A") (A') (A') (A") (A")
                 (A') (A') (A') (A') (A') (A") (A') (A") (A") (A')
                 (A') (A') (A') (A') (A') (A') (A') (A') (A') (A')
                 (A') (A') (A') (A') (A") (A") (A') (A') (A') (A')
                 (A') (A') (A') (A') (A') (A') (A') (A") (A') (A')
                 (A') (A') (A') (A') (A') (A') (A') (A') (A') (A')
                 (A') (A') (A') (A') (A') (A') (A") (A') (A') (A')
                 (A') (A") (A") (A') (A") (A') (A") (A') (A") (A')
                 (A') (A') (A') (A') (A") (A") (A') (A') (A') (A")
                 (A") (A") (A") (A") (A') (A') (A") (A") (A") (A")
                 (A') (A") (A") (A') (A") (A") (A') (A') (A") (A')
                 (A") (A') (A") (A") (A') (A") (A') (A") (A') (A')
                 (A') (A') (A") (A') (A') (A') (A') (A") (A') (A")
                 (A') (A') (A') (A") (A') (A') (A') (A') (A') (A')
                 (A") (A') (A") (A') (A") (A") (A') (A') (A') (A")
                 (A') (A') (A') (A') (A') (A') (A") (A') (A") (A')
                 (A') (A') (A') (A') (A") (A") (A') (A') (A') (A")
                 (A') (A') (A') (A') (A") (A') (A") (A') (A') (A')
                 (A") (A") (A") (A') (A") (A") (A') (A') (A") (A")
                 (A") (A') (A') (A") (A") (A") (A") (A') (A') (A')
                 (A') (A') (A') (A") (A') (A") (A') (A") (A") (A')
                 (A") (A') (A') (A") (A") (A') (A') (A') (A') (A')
                 (A") (A') (A") (A') (A') (A') (A") (A') (A") (A")
                 (A') (A') (A') (A') (A') (A') (A') (A') (A') (A')
                 (A') (A') (A') (A') (A') (A') (A") (A') (A") (A')
                 (A') (A') (A') (A") (A') (A') (A') (A') (A') (A')
                 (A') (A') (A') (A') (A') (A') (A') (A') (A') (A')
                 (A') (A') (A') (A') (A') (A') (A') (A') (A') (A')
                 (A') (A') (A') (A') (A') (A') (A') (A') (A') (A')
                 (A') (A') (A') (A') (A') (A') (A') (A') (A') (A')
                 (A') (A')
 The electronic state is 1-A'.
 Alpha  occ. eigenvalues -- -323.03786-277.47549 -38.86844 -34.07939 -34.07879
 Alpha  occ. eigenvalues --  -34.06843 -32.80372 -28.45988 -28.44702 -28.44533
 Alpha  occ. eigenvalues --  -10.27666 -10.27498 -10.26049 -10.25736 -10.25087
 Alpha  occ. eigenvalues --  -10.25065 -10.25020 -10.24782 -10.24254 -10.24146
 Alpha  occ. eigenvalues --  -10.23994 -10.23886 -10.23743 -10.23111 -10.23017
 Alpha  occ. eigenvalues --  -10.22793 -10.22753 -10.22652 -10.21876 -10.21865
 Alpha  occ. eigenvalues --  -10.21714 -10.21679 -10.21650 -10.21638 -10.21551
 Alpha  occ. eigenvalues --  -10.21527 -10.20630 -10.20598 -10.20582 -10.20514
 Alpha  occ. eigenvalues --   -4.32643  -3.66086  -2.82679  -2.82424  -2.80579
 Alpha  occ. eigenvalues --   -2.35584  -2.33590  -2.33463  -0.88437  -0.87771
 Alpha  occ. eigenvalues --   -0.87009  -0.80766  -0.79736  -0.79298  -0.78863
 Alpha  occ. eigenvalues --   -0.78140  -0.77662  -0.76291  -0.75906  -0.74634
 Alpha  occ. eigenvalues --   -0.71450  -0.70579  -0.69343  -0.66449  -0.66026
 Alpha  occ. eigenvalues --   -0.64511  -0.62951  -0.62587  -0.61914  -0.59635
 Alpha  occ. eigenvalues --   -0.58364  -0.57547  -0.55107  -0.54454  -0.52607
 Alpha  occ. eigenvalues --   -0.51599  -0.50266  -0.49552  -0.48253  -0.47419
 Alpha  occ. eigenvalues --   -0.46857  -0.46402  -0.45747  -0.45056  -0.44587
 Alpha  occ. eigenvalues --   -0.44264  -0.43435  -0.40743  -0.39710  -0.39296
 Alpha  occ. eigenvalues --   -0.38864  -0.38538  -0.38161  -0.37522  -0.37376
 Alpha  occ. eigenvalues --   -0.37017  -0.36314  -0.35416  -0.34854  -0.34099
 Alpha  occ. eigenvalues --   -0.32988  -0.32738  -0.31434  -0.31166  -0.30853
 Alpha  occ. eigenvalues --   -0.29807  -0.29603  -0.28291  -0.28015  -0.27935
 Alpha  occ. eigenvalues --   -0.27157  -0.26432  -0.26355  -0.26219  -0.24563
 Alpha  occ. eigenvalues --   -0.23676  -0.22589  -0.21004  -0.20195  -0.19997
 Alpha  occ. eigenvalues --   -0.18542  -0.17929  -0.16443  -0.14581
 Alpha virt. eigenvalues --   -0.10552  -0.10102  -0.09222  -0.06351  -0.05654
 Alpha virt. eigenvalues --   -0.02828  -0.02534  -0.02415  -0.02377  -0.01948
 Alpha virt. eigenvalues --    0.01397   0.02608   0.03232   0.03774   0.04275
 Alpha virt. eigenvalues --    0.04884   0.06084   0.07348   0.07535   0.07676
 Alpha virt. eigenvalues --    0.08155   0.08316   0.08764   0.09273   0.09443
 Alpha virt. eigenvalues --    0.09881   0.10521   0.10753   0.11044   0.11241
 Alpha virt. eigenvalues --    0.11561   0.13023   0.13679   0.13823   0.14960
 Alpha virt. eigenvalues --    0.15524   0.16565   0.16857   0.16918   0.17265
 Alpha virt. eigenvalues --    0.17829   0.17900   0.18343   0.19320   0.20011
 Alpha virt. eigenvalues --    0.20204   0.20746   0.21110   0.22301   0.24638
 Alpha virt. eigenvalues --    0.24819   0.26223   0.26508   0.26764   0.27761
 Alpha virt. eigenvalues --    0.28026   0.28655   0.29794   0.30483   0.31036
 Alpha virt. eigenvalues --    0.33321   0.34461   0.35149   0.35233   0.36279
 Alpha virt. eigenvalues --    0.37951   0.40156   0.41586   0.43674   0.44318
 Alpha virt. eigenvalues --    0.47710   0.48088   0.48384   0.49023   0.49819
 Alpha virt. eigenvalues --    0.49853   0.50387   0.51140   0.51169   0.51366
 Alpha virt. eigenvalues --    0.51845   0.52138   0.52394   0.52827   0.53024
 Alpha virt. eigenvalues --    0.54175   0.54320   0.54903   0.55312   0.55409
 Alpha virt. eigenvalues --    0.55412   0.56813   0.57091   0.57531   0.58215
 Alpha virt. eigenvalues --    0.58413   0.58621   0.58873   0.58988   0.59038
 Alpha virt. eigenvalues --    0.59419   0.59775   0.59954   0.60587   0.61031
 Alpha virt. eigenvalues --    0.61442   0.61482   0.62350   0.62652   0.63941
 Alpha virt. eigenvalues --    0.64151   0.64946   0.65430   0.65661   0.65933
 Alpha virt. eigenvalues --    0.66458   0.67184   0.67550   0.67848   0.68797
 Alpha virt. eigenvalues --    0.69082   0.69748   0.70759   0.71556   0.72386
 Alpha virt. eigenvalues --    0.72443   0.73667   0.74027   0.74232   0.74856
 Alpha virt. eigenvalues --    0.75763   0.76784   0.77153   0.78253   0.78845
 Alpha virt. eigenvalues --    0.79017   0.79768   0.80153   0.80483   0.80804
 Alpha virt. eigenvalues --    0.81167   0.81816   0.82252   0.82447   0.83197
 Alpha virt. eigenvalues --    0.83231   0.84449   0.84972   0.86278   0.86428
 Alpha virt. eigenvalues --    0.87493   0.87921   0.88007   0.88483   0.88552
 Alpha virt. eigenvalues --    0.88673   0.88997   0.91578   0.92094   0.92556
 Alpha virt. eigenvalues --    0.92995   0.93458   0.95434   0.97385   0.98514
 Alpha virt. eigenvalues --    0.98961   0.99696   0.99698   1.02463   1.02740
 Alpha virt. eigenvalues --    1.03776   1.04342   1.05771   1.07126   1.07977
 Alpha virt. eigenvalues --    1.09437   1.09825   1.10950   1.11451   1.12016
 Alpha virt. eigenvalues --    1.12505   1.13840   1.14294   1.14958   1.16009
 Alpha virt. eigenvalues --    1.16867   1.18107   1.18700   1.19115   1.20755
 Alpha virt. eigenvalues --    1.21331   1.22401   1.22535   1.23206   1.23575
 Alpha virt. eigenvalues --    1.23824   1.24245   1.24595   1.25003   1.26920
 Alpha virt. eigenvalues --    1.32730   1.35219   1.37372   1.38435   1.38663
 Alpha virt. eigenvalues --    1.39208   1.40178   1.40668   1.41165   1.41895
 Alpha virt. eigenvalues --    1.42091   1.42397   1.42660   1.43258   1.43850
 Alpha virt. eigenvalues --    1.44953   1.45199   1.45420   1.46325   1.46901
 Alpha virt. eigenvalues --    1.47039   1.47585   1.47852   1.48319   1.48589
 Alpha virt. eigenvalues --    1.51919   1.53166   1.54024   1.55314   1.56689
 Alpha virt. eigenvalues --    1.57910   1.59017   1.59436   1.59899   1.60997
 Alpha virt. eigenvalues --    1.61309   1.61326   1.61902   1.63381   1.64244
 Alpha virt. eigenvalues --    1.67525   1.68542   1.69147   1.69514   1.69974
 Alpha virt. eigenvalues --    1.71190   1.72394   1.72717   1.73298   1.74067
 Alpha virt. eigenvalues --    1.75567   1.76004   1.76774   1.77520   1.77778
 Alpha virt. eigenvalues --    1.78135   1.79428   1.79918   1.80375   1.81998
 Alpha virt. eigenvalues --    1.82453   1.83498   1.84307   1.84664   1.85117
 Alpha virt. eigenvalues --    1.85873   1.86148   1.86286   1.87001   1.87420
 Alpha virt. eigenvalues --    1.88361   1.88686   1.90404   1.91797   1.92120
 Alpha virt. eigenvalues --    1.92850   1.93319   1.94063   1.94071   1.94945
 Alpha virt. eigenvalues --    1.95775   1.96369   1.97448   1.99102   2.00483
 Alpha virt. eigenvalues --    2.00666   2.02255   2.02721   2.04758   2.06095
 Alpha virt. eigenvalues --    2.07070   2.07481   2.08056   2.08831   2.09123
 Alpha virt. eigenvalues --    2.09251   2.09403   2.11304   2.12325   2.12601
 Alpha virt. eigenvalues --    2.13855   2.14241   2.15409   2.17691   2.20436
 Alpha virt. eigenvalues --    2.20994   2.23481   2.25376   2.25699   2.26346
 Alpha virt. eigenvalues --    2.26475   2.26630   2.26948   2.27140   2.27309
 Alpha virt. eigenvalues --    2.27403   2.28535   2.30799   2.31989   2.34488
 Alpha virt. eigenvalues --    2.35619   2.36686   2.37731   2.39252   2.39858
 Alpha virt. eigenvalues --    2.40546   2.40931   2.42635   2.44620   2.44653
 Alpha virt. eigenvalues --    2.45560   2.45828   2.46770   2.47258   2.47658
 Alpha virt. eigenvalues --    2.48948   2.49569   2.50368   2.52795   2.53756
 Alpha virt. eigenvalues --    2.54176   2.54811   2.54960   2.55325   2.57485
 Alpha virt. eigenvalues --    2.59404   2.59448   2.60130   2.60135   2.61160
 Alpha virt. eigenvalues --    2.62438   2.63450   2.64302   2.65430   2.66250
 Alpha virt. eigenvalues --    2.68260   2.68735   2.69095   2.70307   2.71882
 Alpha virt. eigenvalues --    2.74115   2.74467   2.76818   2.78390   2.79355
 Alpha virt. eigenvalues --    2.80571   2.80589   2.80808   2.81359   2.81711
 Alpha virt. eigenvalues --    2.82407   2.84677   2.85673   2.86076   2.91458
 Alpha virt. eigenvalues --    2.93042   2.93746   2.95828   3.08625   3.13294
 Alpha virt. eigenvalues --    3.14072   3.16100   3.16949   3.20648   3.28917
 Alpha virt. eigenvalues --    3.33331   3.35423   3.45743   3.46093   3.52009
 Alpha virt. eigenvalues --    3.98480   4.03131   4.04601   4.05554   4.06940
 Alpha virt. eigenvalues --    4.08879   4.09435   4.09794   4.11041   4.13203
 Alpha virt. eigenvalues --    4.14843   4.17865   4.18288   4.19380   4.24926
 Alpha virt. eigenvalues --    4.27342   4.28408   4.29232   4.34123   4.35038
 Alpha virt. eigenvalues --    4.37824   4.47316   4.48272   4.51938   4.63913
 Alpha virt. eigenvalues --    4.76696   4.77423   5.24036   5.25285   5.35806
 Alpha virt. eigenvalues --   26.06641  39.48053
          Condensed to atoms (all electrons):
               1          2          3          4          5          6
     1  C    5.055219   0.428620  -0.046871  -0.045628  -0.027903   0.492312
     2  C    0.428620   5.082981   0.410162  -0.041540  -0.033108  -0.019671
     3  C   -0.046871   0.410162   5.109221   0.416000  -0.018262  -0.031870
     4  C   -0.045628  -0.041540   0.416000   5.057041   0.501768  -0.028320
     5  C   -0.027903  -0.033108  -0.018262   0.501768   4.909458   0.509979
     6  C    0.492312  -0.019671  -0.031870  -0.028320   0.509979   4.920134
     7  C   -0.037671   0.240137   0.019573   0.018581   0.000170   0.008278
     8  C    0.018367   0.020940   0.238907  -0.039160   0.007595   0.000240
     9  C   -0.000064  -0.084698   0.004912  -0.000074   0.000024  -0.000001
    10  C   -0.000083   0.004773  -0.077389  -0.000149  -0.000004   0.000027
    11  C    0.000050  -0.005197   0.000350   0.000001   0.000000   0.000000
    12  C    0.000001   0.000366  -0.004486   0.000025   0.000000   0.000000
    13  C    0.000000  -0.000071   0.000002   0.000000   0.000000  -0.000000
    14  C    0.000000   0.000002  -0.000067   0.000000  -0.000000   0.000000
    15  H    0.355223  -0.035710   0.003826   0.000498   0.003748  -0.038932
    16  H    0.000520   0.003488  -0.037197   0.355958  -0.038568   0.003721
    17  H    0.003920   0.000823   0.003019  -0.035207   0.357322  -0.039632
    18  H   -0.034233   0.003104   0.000766   0.003966  -0.040033   0.356229
    19  Cu  -0.010593  -0.004217  -0.010959  -0.008940  -0.000011  -0.000397
    20  H   -0.000000  -0.000000   0.000000   0.000000  -0.000000  -0.000000
    21  H   -0.000000   0.000000  -0.000000   0.000000   0.000000  -0.000000
    22  H    0.000000  -0.000000  -0.000000  -0.000000   0.000000   0.000000
    23  H   -0.000000  -0.000000   0.000000   0.000000   0.000000   0.000000
    24  C   -0.000000  -0.000000  -0.000000   0.000000  -0.000000  -0.000000
    25  C    0.000000   0.000000  -0.000000  -0.000000  -0.000000   0.000000
    26  C    0.000000   0.000000  -0.000000   0.000000   0.000000  -0.000000
    27  C   -0.000000   0.000000   0.000000   0.000000  -0.000000  -0.000000
    28  C    0.000000  -0.000000   0.000000   0.000000   0.000000   0.000000
    29  C    0.000000   0.000000  -0.000000   0.000000   0.000000  -0.000000
    30  Co  -0.000247   0.002288   0.000211  -0.000037   0.000015   0.000031
    31  C    0.000000   0.000000  -0.000000   0.000000   0.000000  -0.000000
    32  C   -0.000000  -0.000000   0.000000   0.000000  -0.000000  -0.000000
    33  C    0.000000   0.000000  -0.000000  -0.000000   0.000000   0.000000
    34  C    0.000000   0.000000  -0.000000  -0.000000  -0.000000   0.000000
    35  C   -0.000000  -0.000000   0.000000  -0.000000  -0.000000  -0.000000
    36  C   -0.000000   0.000000   0.000000   0.000000   0.000000  -0.000000
    37  C   -0.000000  -0.000000   0.000000   0.000000  -0.000000   0.000000
    38  C    0.000000  -0.000000   0.000000  -0.000000  -0.000000   0.000000
    39  C    0.000000   0.000000  -0.000000  -0.000000  -0.000000  -0.000000
    40  C    0.000000   0.000000  -0.000000   0.000000  -0.000000   0.000000
    41  H   -0.000000  -0.000000  -0.000000  -0.000000  -0.000000   0.000000
    42  H    0.000000   0.000000  -0.000000  -0.000000  -0.000000   0.000000
    43  H   -0.000000   0.000000  -0.000000   0.000000   0.000000  -0.000000
    44  H    0.000000  -0.000000  -0.000000  -0.000000  -0.000000   0.000000
               7          8          9         10         11         12
     1  C   -0.037671   0.018367  -0.000064  -0.000083   0.000050   0.000001
     2  C    0.240137   0.020940  -0.084698   0.004773  -0.005197   0.000366
     3  C    0.019573   0.238907   0.004912  -0.077389   0.000350  -0.004486
     4  C    0.018581  -0.039160  -0.000074  -0.000149   0.000001   0.000025
     5  C    0.000170   0.007595   0.000024  -0.000004   0.000000   0.000000
     6  C    0.008278   0.000240  -0.000001   0.000027   0.000000   0.000000
     7  C    5.739488  -0.025400   0.337180  -0.010630  -0.130647  -0.000843
     8  C   -0.025400   5.687456  -0.007661   0.324026  -0.000588  -0.112805
     9  C    0.337180  -0.007661   5.490528   0.002317   0.231310   0.000084
    10  C   -0.010630   0.324026   0.002317   5.452211   0.000115   0.322281
    11  C   -0.130647  -0.000588   0.231310   0.000115   5.646203   0.000003
    12  C   -0.000843  -0.112805   0.000084   0.322281   0.000003   5.274231
    13  C   -0.003898  -0.000003  -0.130720  -0.000003   0.313198  -0.000000
    14  C   -0.000008  -0.004386   0.000002  -0.132369  -0.000000   0.568343
    15  H   -0.000355  -0.000235   0.000943  -0.000001  -0.000015  -0.000000
    16  H   -0.000245  -0.001248  -0.000002   0.001099  -0.000000  -0.000000
    17  H   -0.000001  -0.000294  -0.000000  -0.000002  -0.000000  -0.000000
    18  H   -0.000305  -0.000003  -0.000002  -0.000000  -0.000000  -0.000000
    19  Cu   0.058580   0.084502   0.080010   0.143787   0.036413  -0.010874
    20  H   -0.000000  -0.000000  -0.000000   0.000000  -0.000002  -0.000000
    21  H    0.000000  -0.000000   0.000000  -0.000000   0.001041   0.000000
    22  H   -0.000000   0.000000  -0.000000   0.000000  -0.000000   0.000000
    23  H   -0.000000  -0.000000  -0.000000   0.000000  -0.000002   0.000000
    24  C   -0.000000  -0.000000  -0.000000   0.000000  -0.000034   0.000000
    25  C    0.000000   0.000000   0.000000   0.000000   0.000028   0.000000
    26  C    0.000000   0.000000   0.000002  -0.000000  -0.000061  -0.000000
    27  C    0.000001  -0.000000   0.000223   0.000000   0.002661  -0.000000
    28  C   -0.000069  -0.000000  -0.005908  -0.000000  -0.082587   0.000000
    29  C    0.000001   0.000000   0.000180  -0.000000   0.002082  -0.000000
    30  Co  -0.000257  -0.010632   0.068524   0.005868   0.029963   0.005055
    31  C   -0.000001   0.000000  -0.000475   0.000000  -0.003912  -0.000000
    32  C    0.000001   0.000001  -0.000032   0.000001   0.001083   0.000054
    33  C    0.000001  -0.000000   0.000021   0.000010  -0.000017   0.000195
    34  C   -0.000000   0.000000   0.000000  -0.000057   0.000002  -0.000843
    35  C    0.000000   0.000000   0.000000   0.000053  -0.000000   0.001412
    36  C    0.000000   0.000000   0.000000   0.000001  -0.000000   0.000073
    37  C    0.000000   0.000000   0.000000   0.000000  -0.000000   0.000028
    38  C   -0.000000  -0.000000  -0.000000   0.000000   0.000000   0.000045
    39  C   -0.000000   0.000000  -0.000000   0.000056   0.000000   0.001311
    40  C   -0.000000  -0.000042  -0.000000  -0.002611   0.000000  -0.084172
    41  H    0.000000  -0.000000   0.000000  -0.000000  -0.000000  -0.000003
    42  H   -0.000000  -0.000000  -0.000000  -0.000000   0.000000  -0.000000
    43  H    0.000000  -0.000000   0.000000  -0.000000  -0.000000  -0.000004
    44  H   -0.000000  -0.000000  -0.000000  -0.000030  -0.000000   0.000830
              13         14         15         16         17         18
     1  C    0.000000   0.000000   0.355223   0.000520   0.003920  -0.034233
     2  C   -0.000071   0.000002  -0.035710   0.003488   0.000823   0.003104
     3  C    0.000002  -0.000067   0.003826  -0.037197   0.003019   0.000766
     4  C    0.000000   0.000000   0.000498   0.355958  -0.035207   0.003966
     5  C    0.000000  -0.000000   0.003748  -0.038568   0.357322  -0.040033
     6  C   -0.000000   0.000000  -0.038932   0.003721  -0.039632   0.356229
     7  C   -0.003898  -0.000008  -0.000355  -0.000245  -0.000001  -0.000305
     8  C   -0.000003  -0.004386  -0.000235  -0.001248  -0.000294  -0.000003
     9  C   -0.130720   0.000002   0.000943  -0.000002  -0.000000  -0.000002
    10  C   -0.000003  -0.132369  -0.000001   0.001099  -0.000002  -0.000000
    11  C    0.313198  -0.000000  -0.000015  -0.000000  -0.000000  -0.000000
    12  C   -0.000000   0.568343  -0.000000  -0.000000  -0.000000  -0.000000
    13  C    5.770438   0.000000   0.000000  -0.000000  -0.000000  -0.000000
[...]
    13  C   -0.113683  -0.000303  -0.006290   0.000017  -0.000068   0.015613
    14  C    0.046329   0.000000   0.000000  -0.000000   0.000000   0.000000
    15  H    0.000596  -0.000000   0.000000  -0.000000  -0.000000  -0.000000
    16  H    0.000812  -0.000000  -0.000000   0.000000   0.000000  -0.000000
    17  H   -0.000031   0.000000  -0.000000   0.000000   0.000000   0.000000
    18  H   -0.000037   0.000000   0.000000   0.000000   0.000000  -0.000000
    19  Cu  29.074393  -0.000005   0.000052  -0.000001   0.000053   0.000075
    20  H   -0.000005   0.591913  -0.004745  -0.004845  -0.000172   0.356905
    21  H    0.000052  -0.004745   0.583196  -0.000177   0.000018  -0.047583
    22  H   -0.000001  -0.004845  -0.000177   0.591832  -0.004838  -0.040031
    23  H    0.000053  -0.000172   0.000018  -0.004838   0.582004   0.004196
    24  C    0.000075   0.356905  -0.047583  -0.040031   0.004196   4.921669
    25  C    0.000017  -0.040312   0.004191   0.356331  -0.044667   0.512677
    26  C   -0.000046   0.004172   0.000548  -0.036819   0.355403  -0.026983
    27  C    0.007667   0.001012   0.004817   0.001830  -0.033004  -0.039164
    28  C   -0.001407   0.001606  -0.029409   0.001198   0.004235   0.008227
    29  C   -0.001442  -0.036033   0.351504   0.004024   0.000265   0.470334
    30  Co  -0.899505  -0.000013   0.000538  -0.000002   0.000897  -0.001860
    31  C    0.037856   0.000000  -0.000282  -0.000349  -0.006477  -0.000586
    32  C   -0.016834  -0.000001  -0.000002  -0.000007  -0.000624   0.000017
    33  C   -0.016978  -0.000000  -0.000000  -0.000000  -0.000112   0.000000
    34  C   -0.017245  -0.000000   0.000000   0.000000  -0.000003   0.000000
    35  C   -0.004008  -0.000000  -0.000000   0.000000  -0.000000  -0.000000
    36  C   -0.000118  -0.000000  -0.000000  -0.000000  -0.000000  -0.000000
    37  C    0.000002   0.000000  -0.000000   0.000000  -0.000000  -0.000000
    38  C    0.000002  -0.000000   0.000000   0.000000  -0.000000  -0.000000
    39  C    0.000228   0.000000   0.000000  -0.000000   0.000000   0.000000
    40  C    0.008323   0.000000  -0.000000   0.000000   0.000000   0.000000
    41  H   -0.000003  -0.000000  -0.000000   0.000000  -0.000000  -0.000000
    42  H    0.000000  -0.000000   0.000000  -0.000000   0.000000   0.000000
    43  H   -0.000000   0.000000  -0.000000  -0.000000  -0.000000   0.000000
    44  H    0.000017   0.000000  -0.000000   0.000000  -0.000000  -0.000000
              25         26         27         28         29         30
     1  C   -0.000000   0.000000   0.000000  -0.000000  -0.000000  -0.000239
     2  C    0.000000   0.000000   0.000000  -0.000002   0.000000  -0.006025
     3  C    0.000000  -0.000000  -0.000000   0.000001   0.000000  -0.000222
     4  C   -0.000000   0.000000   0.000000  -0.000000  -0.000000   0.000100
     5  C   -0.000000   0.000000   0.000000  -0.000000   0.000000   0.000035
     6  C    0.000000   0.000000  -0.000000   0.000000   0.000000   0.000008
     7  C    0.000000   0.000000   0.000013  -0.000296   0.000014  -0.005752
     8  C   -0.000000   0.000000   0.000000  -0.000012  -0.000000   0.043111
     9  C   -0.000000   0.000003   0.000762  -0.005787  -0.000278  -0.071978
    10  C    0.000000  -0.000000  -0.000002   0.000015   0.000000   0.067857
    11  C   -0.000012  -0.000120   0.048329  -0.277523  -0.020097  -0.069687
    12  C   -0.000000   0.000000   0.000001  -0.000002  -0.000000  -0.036501
    13  C   -0.001025   0.018676   0.157561   0.059945  -0.156084   0.061965
    14  C   -0.000000  -0.000000   0.000001  -0.000000  -0.000000  -0.044935
    15  H    0.000000  -0.000000  -0.000000   0.000000   0.000000   0.000039
    16  H    0.000000   0.000000  -0.000000   0.000000   0.000000   0.000058
    17  H   -0.000000   0.000000   0.000000  -0.000000   0.000000  -0.000002
    18  H   -0.000000  -0.000000   0.000000  -0.000000   0.000000  -0.000001
    19  Cu   0.000017  -0.000046   0.007667  -0.001407  -0.001442  -0.899505
    20  H   -0.040312   0.004172   0.001012   0.001606  -0.036033  -0.000013
    21  H    0.004191   0.000548   0.004817  -0.029409   0.351504   0.000538
    22  H    0.356331  -0.036819   0.001830   0.001198   0.004024  -0.000002
    23  H   -0.044667   0.355403  -0.033004   0.004235   0.000265   0.000897
    24  C    0.512677  -0.026983  -0.039164   0.008227   0.470334  -0.001860
    25  C    4.906484   0.501962  -0.002394  -0.042981  -0.018351  -0.000590
    26  C    0.501962   5.025603   0.493999  -0.043283  -0.064034  -0.005282
    27  C   -0.002394   0.493999   5.581819   0.266671  -0.056851  -0.172588
    28  C   -0.042981  -0.043283   0.266671   5.213953   0.534028   0.087807
    29  C   -0.018351  -0.064034  -0.056851   0.534028   5.158220   0.012125
    30  Co  -0.000590  -0.005282  -0.172588   0.087807   0.012125  27.581107
    31  C    0.009632  -0.080363   0.333959  -0.017442   0.028283  -0.261223
    32  C    0.000014  -0.004712  -0.479292   0.058054   0.000856   0.444015
    33  C   -0.000003  -0.000017  -0.029407   0.001174   0.000008   0.092191
    34  C   -0.000000   0.000001  -0.001019   0.000027   0.000000   0.058063
    35  C   -0.000000   0.000000  -0.000004   0.000000   0.000000   0.007475
    36  C    0.000000  -0.000000  -0.000000   0.000000   0.000000   0.000494
    37  C   -0.000000  -0.000000   0.000000   0.000000   0.000000  -0.000024
    38  C    0.000000  -0.000000  -0.000000   0.000000   0.000000  -0.000011
    39  C    0.000000   0.000000   0.000000  -0.000000  -0.000000  -0.000147
    40  C   -0.000000  -0.000000   0.000000  -0.000000  -0.000000  -0.010588
    41  H   -0.000000  -0.000000   0.000000   0.000000   0.000000   0.000039
    42  H    0.000000   0.000000  -0.000000  -0.000000  -0.000000  -0.000000
    43  H   -0.000000   0.000000   0.000000  -0.000000  -0.000000   0.000001
    44  H   -0.000000  -0.000000   0.000000   0.000000   0.000000  -0.000030
              31         32         33         34         35         36
     1  C   -0.000000  -0.000000  -0.000000  -0.000000  -0.000000  -0.000000
     2  C   -0.000000   0.000000  -0.000000  -0.000000  -0.000000  -0.000000
     3  C    0.000000  -0.000000   0.000000   0.000000   0.000000   0.000000
     4  C    0.000000  -0.000000  -0.000000  -0.000000   0.000000   0.000000
     5  C    0.000000  -0.000000  -0.000000   0.000000   0.000000   0.000000
     6  C   -0.000000  -0.000000   0.000000   0.000000   0.000000  -0.000000
     7  C   -0.000018   0.000007  -0.000003  -0.000000   0.000000   0.000000
     8  C    0.000032  -0.000079  -0.000043   0.000039   0.000047   0.000000
     9  C   -0.000504  -0.000213  -0.000057  -0.000003  -0.000000   0.000000
    10  C   -0.000104  -0.001046  -0.002312   0.000194   0.003423   0.000021
    11  C    0.002353  -0.017004  -0.002919  -0.000183  -0.000002  -0.000000
    12  C    0.000024  -0.000981  -0.015485  -0.018573   0.033582   0.001285
    13  C    0.065158  -0.157311  -0.010390  -0.000613  -0.000002   0.000000
    14  C    0.000063   0.001003  -0.007449  -0.057219  -0.009182   0.018446
    15  H   -0.000000   0.000000   0.000000   0.000000   0.000000   0.000000
    16  H   -0.000000  -0.000000  -0.000000   0.000000   0.000000   0.000000
    17  H    0.000000   0.000000   0.000000  -0.000000  -0.000000  -0.000000
    18  H    0.000000   0.000000   0.000000  -0.000000   0.000000   0.000000
    19  Cu   0.037856  -0.016834  -0.016978  -0.017245  -0.004008  -0.000118
    20  H    0.000000  -0.000001  -0.000000  -0.000000  -0.000000  -0.000000
    21  H   -0.000282  -0.000002  -0.000000   0.000000  -0.000000  -0.000000
    22  H   -0.000349  -0.000007  -0.000000   0.000000   0.000000  -0.000000
    23  H   -0.006477  -0.000624  -0.000112  -0.000003  -0.000000  -0.000000
    24  C   -0.000586   0.000017   0.000000   0.000000  -0.000000  -0.000000
    25  C    0.009632   0.000014  -0.000003  -0.000000  -0.000000   0.000000
    26  C   -0.080363  -0.004712  -0.000017   0.000001   0.000000  -0.000000
    27  C    0.333959  -0.479292  -0.029407  -0.001019  -0.000004  -0.000000
    28  C   -0.017442   0.058054   0.001174   0.000027   0.000000   0.000000
    29  C    0.028283   0.000856   0.000008   0.000000   0.000000   0.000000
    30  Co  -0.261223   0.444015   0.092191   0.058063   0.007475   0.000494
    31  C    7.465343  -0.668309  -0.836798  -0.092678  -0.001252  -0.000013
    32  C   -0.668309   7.588410  -0.009877  -0.687811  -0.028692  -0.000786
    33  C   -0.836798  -0.009877   7.109237   0.266532  -0.388963  -0.012227
    34  C   -0.092678  -0.687811   0.266532   6.224388   0.325255  -0.073708
    35  C   -0.001252  -0.028692  -0.388963   0.325255   5.216179   0.508427
    36  C   -0.000013  -0.000786  -0.012227  -0.073708   0.508427   5.012730
    37  C    0.000000   0.000009   0.000353   0.007581  -0.019844   0.506041
    38  C   -0.000000  -0.000000   0.000048   0.000802  -0.035482  -0.026960
    39  C    0.000000   0.000008   0.000575   0.015069  -0.032202  -0.062712
    40  C    0.000049   0.002527   0.031326   0.015337   0.419875  -0.036522
    41  H    0.000000   0.000029   0.002116  -0.001261  -0.036522   0.352518
    42  H   -0.000000  -0.000000  -0.000009  -0.000319   0.003070  -0.036279
    43  H   -0.000000  -0.000000  -0.000000   0.000002   0.000886   0.004083
    44  H   -0.000000  -0.000000  -0.000006  -0.000250   0.004074   0.000557
              37         38         39         40         41         42
     1  C    0.000000  -0.000000   0.000000   0.000000   0.000000  -0.000000
     2  C    0.000000  -0.000000   0.000000   0.000000  -0.000000  -0.000000
     3  C   -0.000000   0.000000  -0.000000  -0.000002  -0.000000   0.000000
     4  C   -0.000000  -0.000000  -0.000000  -0.000000   0.000000   0.000000
     5  C   -0.000000  -0.000000   0.000000  -0.000000  -0.000000  -0.000000
     6  C   -0.000000   0.000000  -0.000000  -0.000000   0.000000   0.000000
     7  C   -0.000000  -0.000000  -0.000000  -0.000000   0.000000  -0.000000
     8  C   -0.000000   0.000000  -0.000011  -0.001479  -0.000000  -0.000000
     9  C    0.000000  -0.000000  -0.000000   0.000000  -0.000000  -0.000000
    10  C   -0.000000   0.000007  -0.000591  -0.059454  -0.000000  -0.000000
    11  C    0.000000  -0.000000   0.000000   0.000002   0.000000  -0.000000
    12  C    0.000021   0.000221  -0.004921  -0.606125  -0.000011  -0.000001
    13  C   -0.000000   0.000000  -0.000000  -0.000000  -0.000000  -0.000000
    14  C    0.000701   0.006637  -0.056643   0.487141  -0.000314  -0.000003
    15  H   -0.000000  -0.000000   0.000000  -0.000000   0.000000   0.000000
    16  H   -0.000000   0.000000  -0.000000  -0.000000  -0.000000   0.000000
    17  H    0.000000   0.000000  -0.000000   0.000000   0.000000  -0.000000
    18  H   -0.000000  -0.000000  -0.000000  -0.000000  -0.000000   0.000000
    19  Cu   0.000002   0.000002   0.000228   0.008323  -0.000003   0.000000
    20  H    0.000000  -0.000000   0.000000   0.000000  -0.000000  -0.000000
    21  H   -0.000000   0.000000   0.000000  -0.000000  -0.000000   0.000000
    22  H    0.000000   0.000000  -0.000000   0.000000   0.000000  -0.000000
    23  H   -0.000000  -0.000000   0.000000   0.000000  -0.000000   0.000000
    24  C   -0.000000  -0.000000   0.000000   0.000000  -0.000000   0.000000
    25  C   -0.000000   0.000000   0.000000  -0.000000  -0.000000   0.000000
    26  C   -0.000000  -0.000000   0.000000  -0.000000  -0.000000   0.000000
    27  C    0.000000  -0.000000   0.000000   0.000000   0.000000  -0.000000
    28  C    0.000000   0.000000  -0.000000  -0.000000   0.000000  -0.000000
    29  C    0.000000   0.000000  -0.000000  -0.000000   0.000000  -0.000000
    30  Co  -0.000024  -0.000011  -0.000147  -0.010588   0.000039  -0.000000
    31  C    0.000000  -0.000000   0.000000   0.000049   0.000000  -0.000000
    32  C    0.000009  -0.000000   0.000008   0.002527   0.000029  -0.000000
    33  C    0.000353   0.000048   0.000575   0.031326   0.002116  -0.000009
    34  C    0.007581   0.000802   0.015069   0.015337  -0.001261  -0.000319
    35  C   -0.019844  -0.035482  -0.032202   0.419875  -0.036522   0.003070
    36  C    0.506041  -0.026960  -0.062712  -0.036522   0.352518  -0.036279
    37  C    4.891029   0.521596  -0.026658  -0.034056  -0.040554   0.358366
    38  C    0.521596   4.889691   0.509343  -0.020680   0.004206  -0.040768
    39  C   -0.026658   0.509343   5.008886   0.482338   0.000625   0.004171
    40  C   -0.034056  -0.020680   0.482338   5.345650   0.003972   0.000839
    41  H   -0.040554   0.004206   0.000625   0.003972   0.564937  -0.005234
    42  H    0.358366  -0.040768   0.004171   0.000839  -0.005234   0.578421
    43  H   -0.040609   0.358895  -0.036752   0.003104  -0.000173  -0.004862
    44  H    0.004254  -0.040189   0.353469  -0.037002   0.000018  -0.000176
              43         44
     1  C   -0.000000   0.000000
     2  C    0.000000  -0.000000
     3  C   -0.000000   0.000000
     4  C    0.000000  -0.000000
     5  C    0.000000  -0.000000
     6  C   -0.000000   0.000000
     7  C    0.000000  -0.000000
     8  C   -0.000000  -0.000001
     9  C    0.000000  -0.000000
    10  C   -0.000000  -0.000094
    11  C   -0.000000   0.000000
    12  C   -0.000008  -0.000318
    13  C   -0.000000   0.000000
    14  C   -0.000312  -0.002273
    15  H    0.000000  -0.000000
    16  H   -0.000000  -0.000000
    17  H   -0.000000   0.000000
    18  H    0.000000  -0.000000
    19  Cu  -0.000000   0.000017
    20  H    0.000000   0.000000
    21  H   -0.000000  -0.000000
    22  H   -0.000000   0.000000
    23  H   -0.000000  -0.000000
    24  C    0.000000  -0.000000
    25  C   -0.000000  -0.000000
    26  C    0.000000  -0.000000
    27  C    0.000000   0.000000
    28  C   -0.000000   0.000000
    29  C   -0.000000   0.000000
    30  Co   0.000001  -0.000030
    31  C   -0.000000  -0.000000
    32  C   -0.000000  -0.000000
    33  C   -0.000000  -0.000006
    34  C    0.000002  -0.000250
    35  C    0.000886   0.004074
    36  C    0.004083   0.000557
    37  C   -0.040609   0.004254
    38  C    0.358895  -0.040189
    39  C   -0.036752   0.353469
    40  C    0.003104  -0.037002
    41  H   -0.000173   0.000018
    42  H   -0.004862  -0.000176
    43  H    0.579389  -0.005217
    44  H   -0.005217   0.571248
 Mulliken charges:
               1
     1  C   -0.170783
     2  C    0.063208
     3  C    0.029462
     4  C   -0.156934
     5  C   -0.140000
     6  C   -0.125196
     7  C    0.165805
     8  C    0.153223
     9  C   -0.310725
    10  C   -0.317415
    11  C   -0.064520
    12  C    0.048163
    13  C   -0.184681
    14  C   -0.049642
    15  H    0.153234
    16  H    0.155530
    17  H    0.143523
    18  H    0.144321
    19  Cu   0.374265
    20  H    0.130827
    21  H    0.142515
    22  H    0.131837
    23  H    0.142889
    24  C   -0.134119
    25  C   -0.140975
    26  C   -0.138707
    27  C   -0.084717
    28  C    0.181204
    29  C   -0.206491
    30  Co   0.129279
    31  C    0.023645
    32  C   -0.021367
    33  C   -0.170509
    34  C    0.037595
    35  C    0.033863
    36  C   -0.155280
    37  C   -0.128207
    38  C   -0.127358
    39  C   -0.154076
    40  C    0.005426
    41  H    0.155611
    42  H    0.142784
    43  H    0.141572
    44  H    0.151920
 Sum of Mulliken charges =  -0.00000
 Mulliken charges with hydrogens summed into heavy atoms:
               1
     1  C   -0.017549
     2  C    0.063208
     3  C    0.029462
     4  C   -0.001404
     5  C    0.003523
     6  C    0.019125
     7  C    0.165805
     8  C    0.153223
     9  C   -0.310725
    10  C   -0.317415
    11  C   -0.064520
    12  C    0.048163
    13  C   -0.184681
    14  C   -0.049642
    19  Cu   0.374265
    24  C   -0.003292
    25  C   -0.009138
    26  C    0.004182
    27  C   -0.084717
    28  C    0.181204
    29  C   -0.063976
    30  Co   0.129279
    31  C    0.023645
    32  C   -0.021367
    33  C   -0.170509
    34  C    0.037595
    35  C    0.033863
    36  C    0.000331
    37  C    0.014576
    38  C    0.014215
    39  C   -0.002156
    40  C    0.005426
 Electronic spatial extent (au):  <R**2>=          17265.2361
 Charge=             -0.0000 electrons
 Dipole moment (field-independent basis, Debye):
    X=              0.1101    Y=             -3.7045    Z=             -0.0000  Tot=              3.7061
 Quadrupole moment (field-independent basis, Debye-Ang):
   XX=           -152.5389   YY=           -160.5128   ZZ=           -203.3370
   XY=              2.7088   XZ=              0.0000   YZ=              0.0000
 Traceless Quadrupole moment (field-independent basis, Debye-Ang):
   XX=             19.5906   YY=             11.6168   ZZ=            -31.2074
   XY=              2.7088   XZ=              0.0000   YZ=              0.0000
 Octapole moment (field-independent basis, Debye-Ang**2):
  XXX=             61.5844  YYY=            -17.1792  ZZZ=             -0.0000  XYY=            -67.5782
  XXY=            -79.2049  XXZ=              0.0000  XZZ=            -12.9410  YZZ=             -1.0789
  YYZ=             -0.0000  XYZ=             -0.0000
 Hexadecapole moment (field-independent basis, Debye-Ang**3):
 XXXX=         -10039.1307 YYYY=         -10092.5846 ZZZZ=           -228.8467 XXXY=            -59.7935
 XXXZ=              0.0000 YYYX=             90.6506 YYYZ=              0.0000 ZZZX=              0.0000
 ZZZY=              0.0000 XXYY=          -3357.1747 XXZZ=          -2231.0109 YYZZ=          -2158.7673
 XXYZ=              0.0000 YYXZ=              0.0000 ZZXY=             -5.9579
 N-N= 3.726937621153D+03 E-N=-1.733660920523D+04  KE= 4.157518247921D+03
 Symmetry A'   KE= 3.724103124462D+03
 Symmetry A"   KE= 4.334151234594D+02
 Unable to Open any file for archive entry.
 1\1\GINC-C32B-S37\FOpt\RB3LYP\6-31G(d)\C30H12Co1Cu1\ADRIAN.GONZALEZS\2
 3-Jan-2023\0\\#n B3LYP/6-31G(d) Opt scf=xqc\\gy2_CoCu_C\\0,1\C,6.42041
 3691,-8.5263378266,0.\C,5.9260109783,-7.2076574665,0.\C,4.5075022329,-
 6.9944558902,0.\C,3.633136947,-8.0951190639,0.\C,4.1475368213,-9.38611
 01759,0.\C,5.5365076296,-9.5975676599,0.\C,6.7247495149,-6.0363152245,
 0.\C,4.0598588457,-5.6296641152,0.\C,7.3041069986,-4.9270154047,0.\C,3
 .4513461507,-4.5159271294,0.\C,7.2759313048,-3.5351638109,0.\C,2.50917
 51003,-3.5311552564,0.\C,7.8188298149,-2.3307364525,0.\C,1.7575307436,
 -2.5643301133,0.\H,7.49313966,-8.6915816025,0.\H,2.5610874151,-7.92315
 61301,0.\H,3.4710214548,-10.2355344689,0.\H,5.9254720601,-10.611817901
 9,0.\Cu,5.4016848908,-4.2586012748,0.\H,12.1374469842,-0.447689872,0.\
 H,10.7109991239,-2.4829182143,0.\H,11.1155299685,1.8082219652,0.\H,8.6
 477595993,2.0838371568,0.\C,11.0552259244,-0.351326943,0.\C,10.4737696
 305,0.9313594739,0.\C,9.0926531551,1.0932744563,0.\C,8.2757589352,-0.0
 500919492,0.\C,8.8657769323,-1.3566654312,0.\C,10.2615395181,-1.494010
 4548,0.\Co,6.0718638354,-1.9429711015,0.\C,6.8587697071,-0.1319004754,
 0.\C,5.5907634292,-0.1014971513,0.\C,4.2389160751,0.0640914626,0.\C,3.
 0112769843,0.0104417483,0.\C,1.6042593064,-0.1009235577,0.\C,0.7881827
 009,1.0501293212,0.\C,-0.5959975383,0.9464982569,0.\C,-1.2108343089,-0
 .3136993618,0.\C,-0.4354089943,-1.4647008849,0.\C,0.9728130596,-1.3902
 991592,0.\H,1.2680565384,2.0235844245,0.\H,-1.2025412742,1.8476407275,
 0.\H,-2.2940525934,-0.3922591214,0.\H,-0.9031065032,-2.4442660573,0.\\
 Version=ES64L-G16RevC.02\State=1-A'\HF=-4173.0197527\RMSD=3.660e-09\RM
 SF=4.579e-05\Dipole=-1.0265067,-1.0355234,0.\Quadrupole=9.7935751,13.4
 083874,-23.2019625,-3.0944624,0.,0.\PG=CS [SG(C30H12Co1Cu1)]\\@
 The archive entry for this job was punched.


 KINETICS       FACT
 ---------  =  -------
 MECHANISM     FICTION
 Job cpu time:       0 days  9 hours 23 minutes 52.2 seconds.
 Elapsed time:       0 days  0 hours 41 minutes 16.8 seconds.
 File lengths (MBytes):  RWF=    187 Int=      0 D2E=      0 Chk=     24 Scr=      1
 Normal termination of Gaussian 16 at Mon Jan 23 21:53:47 2023.
