 Entering Gaussian System, Link 0=g16
 Initial command:
 /apps/gaussian/16-c02/avx2/g16/l1.exe "/blue/mingjieliu/adrian.gonzalezs/graphyne/gy2/2metal/gy2_CoFe_C/Gau-4520.inp" -scrdir="/blue/mingjieliu/adrian.gonzalezs/graphyne/gy2/2metal/gy2_CoFe_C/"
 Entering Link 1 = /apps/gaussian/16-c02/avx2/g16/l1.exe PID=      4522.
  
 Copyright (c) 1988-2021, Gaussian, Inc.  All Rights Reserved.
  
 This is part of the Gaussian(R) 16 program.  It is based on
 the Gaussian(R) 09 system (copyright 2009, Gaussian, Inc.),
 the Gaussian(R) 03 system (copyright 2003, Gaussian, Inc.),
 the Gaussian(R) 98 system (copyright 1998, Gaussian, Inc.),
 the Gaussian(R) 94 system (copyright 1995, Gaussian, Inc.),
 the Gaussian 92(TM) system (copyright 1992, Gaussian, Inc.),
 the Gaussian 90(TM) system (copyright 1990, Gaussian, Inc.),
 the Gaussian 88(TM) system (copyright 1988, Gaussian, Inc.),
 the Gaussian 86(TM) system (copyright 1986, Carnegie Mellon
 University), and the Gaussian 82(TM) system (copyright 1983,
 Carnegie Mellon University). Gaussian is a federally registered
 trademark of Gaussian, Inc.
  
 This software contains proprietary and confidential information,
 including trade secrets, belonging to Gaussian, Inc.
  
 This software is provided under written license and may be
 used, copied, transmitted, or stored only in accord with that
 written license.
  
 The following legend is applicable only to US Government
 contracts under FAR:
  
                    RESTRICTED RIGHTS LEGEND
  
 Use, reproduction and disclosure by the US Government is
 subject to restrictions as set forth in subparagraphs (a)
 and (c) of the Commercial Computer Software - Restricted
 Rights clause in FAR 52.227-19.
  
 Gaussian, Inc.
 340 Quinnipiac St., Bldg. 40, Wallingford CT 06492
  
  
 ---------------------------------------------------------------
 Warning -- This program may not be used in any manner that
 competes with the business of Gaussian, Inc. or will provide
 assistance to any competitor of Gaussian, Inc.  The licensee
 of this program is prohibited from giving any competitor of
 Gaussian, Inc. access to this program.  By using this program,
 the user acknowledges that Gaussian, Inc. is engaged in the
 business of creating and licensing software in the field of
 computational chemistry and represents and warrants to the
 licensee that it is not a competitor of Gaussian, Inc. and that
 it will not use this program in any manner prohibited above.
 ---------------------------------------------------------------
  

 Cite this work as:
 Gaussian 16, Revision C.02,
 M. J. Frisch, G. W. Trucks, H. B. Schlegel, G. E. Scuseria, 
 M. A. Robb, J. R. Cheeseman, G. Scalmani, V. Barone, 
 G. A. Petersson, H. Nakatsuji, X. Li, M. Caricato, A. V. Marenich, 
 J. Bloino, B. G. Janesko, R. Gomperts, B. Mennucci, H. P. Hratchian, 
 J. V. Ortiz, A. F. Izmaylov, J. L. Sonnenberg, D. Williams-Young, 
 F. Ding, F. Lipparini, F. Egidi, J. Goings, B. Peng, A. Petrone, 
 T. Henderson, D. Ranasinghe, V. G. Zakrzewski, J. Gao, N. Rega, 
 G. Zheng, W. Liang, M. Hada, M. Ehara, K. Toyota, R. Fukuda, 
 J. Hasegawa, M. Ishida, T. Nakajima, Y. Honda, O. Kitao, H. Nakai, 
 T. Vreven, K. Throssell, J. A. Montgomery, Jr., J. E. Peralta, 
 F. Ogliaro, M. J. Bearpark, J. J. Heyd, E. N. Brothers, K. N. Kudin, 
 V. N. Staroverov, T. A. Keith, R. Kobayashi, J. Normand, 
 K. Raghavachari, A. P. Rendell, J. C. Burant, S. S. Iyengar, 
 J. Tomasi, M. Cossi, J. M. Millam, M. Klene, C. Adamo, R. Cammi, 
 J. W. Ochterski, R. L. Martin, K. Morokuma, O. Farkas, 
 J. B. Foresman, and D. J. Fox, Gaussian, Inc., Wallingford CT, 2019.
 
 ******************************************
 Gaussian 16:  ES64L-G16RevC.02  7-Dec-2021
                23-Jan-2023 
 ******************************************
 %NProcShared=16
 Will use up to   16 processors via shared memory.
 -----------------------------
 #n B3LYP/6-31G(d) Opt scf=xqc
 -----------------------------
 1/18=20,19=15,26=3,38=1/1,3;
 2/9=110,12=2,17=6,18=5,40=1/2;
 3/5=1,6=6,7=1,11=2,25=1,30=1,71=1,74=-5/1,2,3;
 4//1;
 5/5=2,8=3,13=1,38=5/2,8;
 6/7=2,8=2,9=2,10=2,28=1/1;
 7//1,2,3,16;
 1/18=20,19=15,26=3/3(2);
 2/9=110/2;
 99//99;
 2/9=110/2;
 3/5=1,6=6,7=1,11=2,25=1,30=1,71=1,74=-5/1,2,3;
 4/5=5,16=3,69=1/1;
 5/5=2,8=3,13=1,38=5/2,8;
 7//1,2,3,16;
 1/18=20,19=15,26=3/3(-5);
 2/9=110/2;
 6/7=2,8=2,9=2,10=2,19=2,28=1/1;
 99/9=1/99;
 ----------
 gy2_CoFe_C
 ----------
 Symbolic Z-matrix:
 Charge =  0 Multiplicity = 2
 C                     6.39     -8.60829   0. 
 C                     5.68     -7.37854   0. 
 C                     4.26     -7.37854   0. 
 C                     3.55     -8.60829   0. 
 C                     4.26     -9.83805   0. 
 C                     5.68     -9.83805   0. 
 C                     6.39     -6.14878   0. 
 C                     3.55     -6.14878   0. 
 C                     7.1      -4.91902   0. 
 C                     2.84     -4.91902   0. 
 C                     7.81     -3.68927   0. 
 C                     2.13     -3.68927   0. 
 C                     8.52     -2.45951   0. 
 C                     1.42     -2.45951   0. 
 H                     7.48     -8.60829   0. 
 H                     2.46     -8.60829   0. 
 H                     3.715    -10.78202   0. 
 H                     6.225    -10.78202   0. 
 Co                    4.97     -4.76829   0. 
 H                     12.45     0.        0. 
 H                     11.195   -2.17372   0. 
 H                     11.195    2.17372   0. 
 H                     8.685     2.17372   0. 
 C                     11.36     0.        0. 
 C                     10.65     1.22976   0. 
 C                     9.23      1.22976   0. 
 C                     8.52      0.        0. 
 C                     9.23     -1.22976   0. 
 C                     10.65    -1.22976   0. 
 Fe                    6.61446  -1.92      0. 
 C                     7.1       0.        0. 
 C                     5.68      0.        0. 
 C                     4.26      0.        0. 
 C                     2.84      0.        0. 
 C                     1.42      0.        0. 
 C                     0.71      1.22976   0. 
 C                    -0.71      1.22976   0. 
 C                    -1.42      0.        0. 
 C                    -0.71     -1.22976   0. 
 C                     0.71     -1.22976   0. 
 H                     1.255     2.17372   0. 
 H                    -1.255     2.17372   0. 
 H                    -2.51      0.        0. 
 H                    -1.255    -2.17372   0. 
 

 GradGradGradGradGradGradGradGradGradGradGradGradGradGradGradGradGradGrad
 Berny optimization.
 Initialization pass.
                           ----------------------------
                           !    Initial Parameters    !
                           ! (Angstroms and Degrees)  !
 --------------------------                            --------------------------
 ! Name  Definition              Value          Derivative Info.                !
 --------------------------------------------------------------------------------
 ! R1    R(1,2)                  1.42           estimate D2E/DX2                !
 ! R2    R(1,6)                  1.42           estimate D2E/DX2                !
 ! R3    R(1,15)                 1.09           estimate D2E/DX2                !
 ! R4    R(2,3)                  1.42           estimate D2E/DX2                !
 ! R5    R(2,7)                  1.42           estimate D2E/DX2                !
 ! R6    R(3,4)                  1.42           estimate D2E/DX2                !
 ! R7    R(3,8)                  1.42           estimate D2E/DX2                !
 ! R8    R(4,5)                  1.42           estimate D2E/DX2                !
 ! R9    R(4,16)                 1.09           estimate D2E/DX2                !
 ! R10   R(5,6)                  1.42           estimate D2E/DX2                !
 ! R11   R(5,17)                 1.09           estimate D2E/DX2                !
 ! R12   R(6,18)                 1.09           estimate D2E/DX2                !
 ! R13   R(7,9)                  1.42           estimate D2E/DX2                !
 ! R14   R(7,19)                 1.9804         estimate D2E/DX2                !
 ! R15   R(8,10)                 1.42           estimate D2E/DX2                !
 ! R16   R(8,19)                 1.9804         estimate D2E/DX2                !
 ! R17   R(9,11)                 1.42           estimate D2E/DX2                !
 ! R18   R(9,19)                 2.1353         estimate D2E/DX2                !
 ! R19   R(10,12)                1.42           estimate D2E/DX2                !
 ! R20   R(10,19)                2.1353         estimate D2E/DX2                !
 ! R21   R(11,13)                1.42           estimate D2E/DX2                !
 ! R22   R(11,30)                2.1353         estimate D2E/DX2                !
 ! R23   R(12,14)                1.42           estimate D2E/DX2                !
 ! R24   R(13,28)                1.42           estimate D2E/DX2                !
 ! R25   R(13,30)                1.9804         estimate D2E/DX2                !
 ! R26   R(14,40)                1.42           estimate D2E/DX2                !
 ! R27   R(20,24)                1.09           estimate D2E/DX2                !
 ! R28   R(21,29)                1.09           estimate D2E/DX2                !
 ! R29   R(22,25)                1.09           estimate D2E/DX2                !
 ! R30   R(23,26)                1.09           estimate D2E/DX2                !
 ! R31   R(24,25)                1.42           estimate D2E/DX2                !
 ! R32   R(24,29)                1.42           estimate D2E/DX2                !
 ! R33   R(25,26)                1.42           estimate D2E/DX2                !
 ! R34   R(26,27)                1.42           estimate D2E/DX2                !
 ! R35   R(27,28)                1.42           estimate D2E/DX2                !
 ! R36   R(27,31)                1.42           estimate D2E/DX2                !
 ! R37   R(28,29)                1.42           estimate D2E/DX2                !
 ! R38   R(30,31)                1.9804         estimate D2E/DX2                !
 ! R39   R(30,32)                2.1353         estimate D2E/DX2                !
 ! R40   R(31,32)                1.42           estimate D2E/DX2                !
 ! R41   R(32,33)                1.42           estimate D2E/DX2                !
 ! R42   R(33,34)                1.42           estimate D2E/DX2                !
 ! R43   R(34,35)                1.42           estimate D2E/DX2                !
 ! R44   R(35,36)                1.42           estimate D2E/DX2                !
 ! R45   R(35,40)                1.42           estimate D2E/DX2                !
 ! R46   R(36,37)                1.42           estimate D2E/DX2                !
 ! R47   R(36,41)                1.09           estimate D2E/DX2                !
 ! R48   R(37,38)                1.42           estimate D2E/DX2                !
 ! R49   R(37,42)                1.09           estimate D2E/DX2                !
 ! R50   R(38,39)                1.42           estimate D2E/DX2                !
 ! R51   R(38,43)                1.09           estimate D2E/DX2                !
 ! R52   R(39,40)                1.42           estimate D2E/DX2                !
 ! R53   R(39,44)                1.09           estimate D2E/DX2                !
 ! A1    A(2,1,6)              120.0            estimate D2E/DX2                !
 ! A2    A(2,1,15)             120.0            estimate D2E/DX2                !
 ! A3    A(6,1,15)             120.0            estimate D2E/DX2                !
 ! A4    A(1,2,3)              120.0            estimate D2E/DX2                !
 ! A5    A(1,2,7)              120.0            estimate D2E/DX2                !
 ! A6    A(3,2,7)              120.0            estimate D2E/DX2                !
 ! A7    A(2,3,4)              120.0            estimate D2E/DX2                !
 ! A8    A(2,3,8)              120.0            estimate D2E/DX2                !
 ! A9    A(4,3,8)              120.0            estimate D2E/DX2                !
 ! A10   A(3,4,5)              120.0            estimate D2E/DX2                !
 ! A11   A(3,4,16)             120.0            estimate D2E/DX2                !
 ! A12   A(5,4,16)             120.0            estimate D2E/DX2                !
 ! A13   A(4,5,6)              120.0            estimate D2E/DX2                !
 ! A14   A(4,5,17)             120.0            estimate D2E/DX2                !
 ! A15   A(6,5,17)             120.0            estimate D2E/DX2                !
 ! A16   A(1,6,5)              120.0            estimate D2E/DX2                !
 ! A17   A(1,6,18)             120.0            estimate D2E/DX2                !
 ! A18   A(5,6,18)             120.0            estimate D2E/DX2                !
 ! A19   A(2,7,19)             104.1917         estimate D2E/DX2                !
 ! A20   A(3,8,19)             104.1917         estimate D2E/DX2                !
 ! A21   A(11,9,19)            115.9521         estimate D2E/DX2                !
 ! A22   A(12,10,19)           115.9521         estimate D2E/DX2                !
 ! A23   A(9,11,30)            115.9521         estimate D2E/DX2                !
 ! A24   A(28,13,30)           104.1917         estimate D2E/DX2                !
 ! A25   A(7,19,8)              91.6167         estimate D2E/DX2                !
 ! A26   A(7,19,10)            131.7605         estimate D2E/DX2                !
 ! A27   A(8,19,9)             131.7605         estimate D2E/DX2                !
 ! A28   A(20,24,25)           120.0            estimate D2E/DX2                !
 ! A29   A(20,24,29)           120.0            estimate D2E/DX2                !
 ! A30   A(25,24,29)           120.0            estimate D2E/DX2                !
 ! A31   A(22,25,24)           120.0            estimate D2E/DX2                !
 ! A32   A(22,25,26)           120.0            estimate D2E/DX2                !
 ! A33   A(24,25,26)           120.0            estimate D2E/DX2                !
 ! A34   A(23,26,25)           120.0            estimate D2E/DX2                !
 ! A35   A(23,26,27)           120.0            estimate D2E/DX2                !
 ! A36   A(25,26,27)           120.0            estimate D2E/DX2                !
 ! A37   A(26,27,28)           120.0            estimate D2E/DX2                !
 ! A38   A(26,27,31)           120.0            estimate D2E/DX2                !
 ! A39   A(28,27,31)           120.0            estimate D2E/DX2                !
 ! A40   A(13,28,27)           120.0            estimate D2E/DX2                !
 ! A41   A(13,28,29)           120.0            estimate D2E/DX2                !
 ! A42   A(27,28,29)           120.0            estimate D2E/DX2                !
 ! A43   A(21,29,24)           120.0            estimate D2E/DX2                !
 ! A44   A(21,29,28)           120.0            estimate D2E/DX2                !
 ! A45   A(24,29,28)           120.0            estimate D2E/DX2                !
 ! A46   A(11,30,31)           131.7605         estimate D2E/DX2                !
 ! A47   A(13,30,31)            91.6167         estimate D2E/DX2                !
 ! A48   A(13,30,32)           131.7605         estimate D2E/DX2                !
 ! A49   A(27,31,30)           104.1917         estimate D2E/DX2                !
 ! A50   A(30,32,33)           115.9521         estimate D2E/DX2                !
 ! A51   A(34,35,36)           120.0            estimate D2E/DX2                !
 ! A52   A(34,35,40)           120.0            estimate D2E/DX2                !
 ! A53   A(36,35,40)           120.0            estimate D2E/DX2                !
 ! A54   A(35,36,37)           120.0            estimate D2E/DX2                !
 ! A55   A(35,36,41)           120.0            estimate D2E/DX2                !
 ! A56   A(37,36,41)           120.0            estimate D2E/DX2                !
 ! A57   A(36,37,38)           120.0            estimate D2E/DX2                !
 ! A58   A(36,37,42)           120.0            estimate D2E/DX2                !
 ! A59   A(38,37,42)           120.0            estimate D2E/DX2                !
 ! A60   A(37,38,39)           120.0            estimate D2E/DX2                !
 ! A61   A(37,38,43)           120.0            estimate D2E/DX2                !
 ! A62   A(39,38,43)           120.0            estimate D2E/DX2                !
 ! A63   A(38,39,40)           120.0            estimate D2E/DX2                !
 ! A64   A(38,39,44)           120.0            estimate D2E/DX2                !
 ! A65   A(40,39,44)           120.0            estimate D2E/DX2                !
 ! A66   A(14,40,35)           120.0            estimate D2E/DX2                !
 ! A67   A(14,40,39)           120.0            estimate D2E/DX2                !
 ! A68   A(35,40,39)           120.0            estimate D2E/DX2                !
 ! A69   L(2,7,9,10,-1)        180.0            estimate D2E/DX2                !
 ! A70   L(3,8,10,9,-1)        180.0            estimate D2E/DX2                !
 ! A71   L(7,9,11,12,-1)       180.0            estimate D2E/DX2                !
 ! A72   L(8,10,12,11,-1)      180.0            estimate D2E/DX2                !
 ! A73   L(9,11,13,14,-1)      180.0            estimate D2E/DX2                !
 ! A74   L(10,12,14,13,-1)     180.0            estimate D2E/DX2                !
 ! A75   L(11,13,28,30,-1)     180.0            estimate D2E/DX2                !
 ! A76   L(12,14,40,20,-1)     180.0            estimate D2E/DX2                !
 ! A77   L(9,19,10,2,-1)       171.9043         estimate D2E/DX2                !
 ! A78   L(11,30,32,10,-1)     188.0957         estimate D2E/DX2                !
 ! A79   L(27,31,32,1,-1)      180.0            estimate D2E/DX2                !
 ! A80   L(31,32,33,1,-1)      180.0            estimate D2E/DX2                !
 ! A81   L(32,33,34,1,-1)      180.0            estimate D2E/DX2                !
 ! A82   L(33,34,35,1,-1)      180.0            estimate D2E/DX2                !
 ! A83   L(2,7,9,10,-2)        180.0            estimate D2E/DX2                !
 ! A84   L(3,8,10,9,-2)        180.0            estimate D2E/DX2                !
 ! A85   L(7,9,11,12,-2)       180.0            estimate D2E/DX2                !
 ! A86   L(8,10,12,11,-2)      180.0            estimate D2E/DX2                !
 ! A87   L(9,11,13,14,-2)      180.0            estimate D2E/DX2                !
 ! A88   L(10,12,14,13,-2)     180.0            estimate D2E/DX2                !
 ! A89   L(11,13,28,30,-2)     180.0            estimate D2E/DX2                !
 ! A90   L(12,14,40,20,-2)     180.0            estimate D2E/DX2                !
 ! A91   L(9,19,10,2,-2)       180.0            estimate D2E/DX2                !
 ! A92   L(11,30,32,10,-2)     180.0            estimate D2E/DX2                !
 ! A93   L(27,31,32,1,-2)      180.0            estimate D2E/DX2                !
 ! A94   L(31,32,33,1,-2)      180.0            estimate D2E/DX2                !
 ! A95   L(32,33,34,1,-2)      180.0            estimate D2E/DX2                !
 ! A96   L(33,34,35,1,-2)      180.0            estimate D2E/DX2                !
 ! D1    D(6,1,2,3)              0.0            estimate D2E/DX2                !
 ! D2    D(6,1,2,7)            180.0            estimate D2E/DX2                !
 ! D3    D(15,1,2,3)           180.0            estimate D2E/DX2                !
 ! D4    D(15,1,2,7)             0.0            estimate D2E/DX2                !
 ! D5    D(2,1,6,5)              0.0            estimate D2E/DX2                !
 ! D6    D(2,1,6,18)           180.0            estimate D2E/DX2                !
 ! D7    D(15,1,6,5)           180.0            estimate D2E/DX2                !
 ! D8    D(15,1,6,18)            0.0            estimate D2E/DX2                !
 ! D9    D(1,2,3,4)              0.0            estimate D2E/DX2                !
 ! D10   D(1,2,3,8)            180.0            estimate D2E/DX2                !
 ! D11   D(7,2,3,4)            180.0            estimate D2E/DX2                !
 ! D12   D(7,2,3,8)              0.0            estimate D2E/DX2                !
 ! D13   D(1,2,7,19)           180.0            estimate D2E/DX2                !
 ! D14   D(3,2,7,19)             0.0            estimate D2E/DX2                !
 ! D15   D(2,3,4,5)              0.0            estimate D2E/DX2                !
 ! D16   D(2,3,4,16)           180.0            estimate D2E/DX2                !
 ! D17   D(8,3,4,5)            180.0            estimate D2E/DX2                !
 ! D18   D(8,3,4,16)             0.0            estimate D2E/DX2                !
 ! D19   D(2,3,8,19)             0.0            estimate D2E/DX2                !
 ! D20   D(4,3,8,19)           180.0            estimate D2E/DX2                !
 ! D21   D(3,4,5,6)              0.0            estimate D2E/DX2                !
 ! D22   D(3,4,5,17)           180.0            estimate D2E/DX2                !
 ! D23   D(16,4,5,6)           180.0            estimate D2E/DX2                !
 ! D24   D(16,4,5,17)            0.0            estimate D2E/DX2                !
 ! D25   D(4,5,6,1)              0.0            estimate D2E/DX2                !
 ! D26   D(4,5,6,18)           180.0            estimate D2E/DX2                !
 ! D27   D(17,5,6,1)           180.0            estimate D2E/DX2                !
 ! D28   D(17,5,6,18)            0.0            estimate D2E/DX2                !
 ! D29   D(2,7,19,8)             0.0            estimate D2E/DX2                !
 ! D30   D(2,7,19,10)            0.0            estimate D2E/DX2                !
 ! D31   D(9,7,19,11)            0.0            estimate D2E/DX2                !
 ! D32   D(3,8,19,7)             0.0            estimate D2E/DX2                !
 ! D33   D(3,8,19,9)             0.0            estimate D2E/DX2                !
 ! D34   D(19,9,11,30)           0.0            estimate D2E/DX2                !
 ! D35   D(11,9,19,8)          180.0            estimate D2E/DX2                !
 ! D36   D(11,9,30,13)           0.0            estimate D2E/DX2                !
 ! D37   D(19,10,40,35)          0.0            estimate D2E/DX2                !
 ! D38   D(19,10,40,39)        180.0            estimate D2E/DX2                !
 ! D39   D(12,10,19,7)         180.0            estimate D2E/DX2                !
 ! D40   D(9,11,30,31)         180.0            estimate D2E/DX2                !
 ! D41   D(30,13,28,27)          0.0            estimate D2E/DX2                !
 ! D42   D(30,13,28,29)        180.0            estimate D2E/DX2                !
 ! D43   D(28,13,30,31)          0.0            estimate D2E/DX2                !
 ! D44   D(28,13,30,32)          0.0            estimate D2E/DX2                !
 ! D45   D(20,24,25,22)          0.0            estimate D2E/DX2                !
 ! D46   D(20,24,25,26)        180.0            estimate D2E/DX2                !
 ! D47   D(29,24,25,22)        180.0            estimate D2E/DX2                !
 ! D48   D(29,24,25,26)          0.0            estimate D2E/DX2                !
 ! D49   D(20,24,29,21)          0.0            estimate D2E/DX2                !
 ! D50   D(20,24,29,28)        180.0            estimate D2E/DX2                !
 ! D51   D(25,24,29,21)        180.0            estimate D2E/DX2                !
 ! D52   D(25,24,29,28)          0.0            estimate D2E/DX2                !
 ! D53   D(22,25,26,23)          0.0            estimate D2E/DX2                !
 ! D54   D(22,25,26,27)        180.0            estimate D2E/DX2                !
 ! D55   D(24,25,26,23)        180.0            estimate D2E/DX2                !
 ! D56   D(24,25,26,27)          0.0            estimate D2E/DX2                !
 ! D57   D(23,26,27,28)        180.0            estimate D2E/DX2                !
 ! D58   D(23,26,27,31)          0.0            estimate D2E/DX2                !
 ! D59   D(25,26,27,28)          0.0            estimate D2E/DX2                !
 ! D60   D(25,26,27,31)        180.0            estimate D2E/DX2                !
 ! D61   D(26,27,28,13)        180.0            estimate D2E/DX2                !
 ! D62   D(26,27,28,29)          0.0            estimate D2E/DX2                !
 ! D63   D(31,27,28,13)          0.0            estimate D2E/DX2                !
 ! D64   D(31,27,28,29)        180.0            estimate D2E/DX2                !
 ! D65   D(26,27,31,30)        180.0            estimate D2E/DX2                !
 ! D66   D(28,27,31,30)          0.0            estimate D2E/DX2                !
 ! D67   D(13,28,29,21)          0.0            estimate D2E/DX2                !
 ! D68   D(13,28,29,24)        180.0            estimate D2E/DX2                !
 ! D69   D(27,28,29,21)        180.0            estimate D2E/DX2                !
 ! D70   D(27,28,29,24)          0.0            estimate D2E/DX2                !
 ! D71   D(11,30,31,27)          0.0            estimate D2E/DX2                !
 ! D72   D(13,30,31,27)          0.0            estimate D2E/DX2                !
 ! D73   D(13,30,32,33)        180.0            estimate D2E/DX2                !
 ! D74   D(30,32,35,36)        180.0            estimate D2E/DX2                !
 ! D75   D(30,32,35,40)          0.0            estimate D2E/DX2                !
 ! D76   D(34,35,36,37)        180.0            estimate D2E/DX2                !
 ! D77   D(34,35,36,41)          0.0            estimate D2E/DX2                !
 ! D78   D(40,35,36,37)          0.0            estimate D2E/DX2                !
 ! D79   D(40,35,36,41)        180.0            estimate D2E/DX2                !
 ! D80   D(34,35,40,14)          0.0            estimate D2E/DX2                !
 ! D81   D(34,35,40,39)        180.0            estimate D2E/DX2                !
 ! D82   D(36,35,40,14)        180.0            estimate D2E/DX2                !
 ! D83   D(36,35,40,39)          0.0            estimate D2E/DX2                !
 ! D84   D(35,36,37,38)          0.0            estimate D2E/DX2                !
 ! D85   D(35,36,37,42)        180.0            estimate D2E/DX2                !
 ! D86   D(41,36,37,38)        180.0            estimate D2E/DX2                !
 ! D87   D(41,36,37,42)          0.0            estimate D2E/DX2                !
 ! D88   D(36,37,38,39)          0.0            estimate D2E/DX2                !
 ! D89   D(36,37,38,43)        180.0            estimate D2E/DX2                !
 ! D90   D(42,37,38,39)        180.0            estimate D2E/DX2                !
 ! D91   D(42,37,38,43)          0.0            estimate D2E/DX2                !
 ! D92   D(37,38,39,40)          0.0            estimate D2E/DX2                !
 ! D93   D(37,38,39,44)        180.0            estimate D2E/DX2                !
 ! D94   D(43,38,39,40)        180.0            estimate D2E/DX2                !
 ! D95   D(43,38,39,44)          0.0            estimate D2E/DX2                !
 ! D96   D(38,39,40,14)        180.0            estimate D2E/DX2                !
 ! D97   D(38,39,40,35)          0.0            estimate D2E/DX2                !
 ! D98   D(44,39,40,14)          0.0            estimate D2E/DX2                !
 ! D99   D(44,39,40,35)        180.0            estimate D2E/DX2                !
 --------------------------------------------------------------------------------
 Trust Radius=3.00D-01 FncErr=1.00D-07 GrdErr=1.00D-06 EigMax=2.50D+02 EigMin=1.00D-04
 Number of steps in this run=    258 maximum allowed number of steps=    264.
 GradGradGradGradGradGradGradGradGradGradGradGradGradGradGradGradGradGrad

                          Input orientation:                          
 ---------------------------------------------------------------------
 Center     Atomic      Atomic             Coordinates (Angstroms)
 Number     Number       Type             X           Y           Z
 ---------------------------------------------------------------------
      1          6           0        6.390000   -8.608293    0.000000
      2          6           0        5.680000   -7.378536    0.000000
      3          6           0        4.260000   -7.378536    0.000000
      4          6           0        3.550000   -8.608293    0.000000
      5          6           0        4.260000   -9.838049    0.000000
      6          6           0        5.680000   -9.838049    0.000000
      7          6           0        6.390000   -6.148780    0.000000
      8          6           0        3.550000   -6.148780    0.000000
      9          6           0        7.100000   -4.919024    0.000000
     10          6           0        2.840000   -4.919024    0.000000
     11          6           0        7.810000   -3.689268    0.000000
     12          6           0        2.130000   -3.689268    0.000000
     13          6           0        8.520000   -2.459512    0.000000
     14          6           0        1.420000   -2.459512    0.000000
     15          1           0        7.480000   -8.608293    0.000000
     16          1           0        2.460000   -8.608293    0.000000
     17          1           0        3.715000  -10.782016    0.000000
     18          1           0        6.225000  -10.782016    0.000000
     19         27           0        4.970000   -4.768293    0.000000
     20          1           0       12.450000    0.000000    0.000000
     21          1           0       11.195000   -2.173724    0.000000
     22          1           0       11.195000    2.173724    0.000000
     23          1           0        8.685000    2.173724    0.000000
     24          6           0       11.360000    0.000000    0.000000
     25          6           0       10.650000    1.229756    0.000000
     26          6           0        9.230000    1.229756    0.000000
     27          6           0        8.520000    0.000000    0.000000
     28          6           0        9.230000   -1.229756    0.000000
     29          6           0       10.650000   -1.229756    0.000000
     30         26           0        6.614462   -1.920000    0.000000
     31          6           0        7.100000    0.000000    0.000000
     32          6           0        5.680000    0.000000    0.000000
     33          6           0        4.260000    0.000000    0.000000
     34          6           0        2.840000    0.000000    0.000000
     35          6           0        1.420000    0.000000    0.000000
     36          6           0        0.710000    1.229756    0.000000
     37          6           0       -0.710000    1.229756    0.000000
     38          6           0       -1.420000    0.000000    0.000000
     39          6           0       -0.710000   -1.229756    0.000000
     40          6           0        0.710000   -1.229756    0.000000
     41          1           0        1.255000    2.173724    0.000000
     42          1           0       -1.255000    2.173724    0.000000
     43          1           0       -2.510000    0.000000    0.000000
     44          1           0       -1.255000   -2.173724    0.000000
 ---------------------------------------------------------------------
                    Distance matrix (angstroms):
                    1          2          3          4          5
     1  C    0.000000
     2  C    1.420000   0.000000
     3  C    2.459512   1.420000   0.000000
     4  C    2.840000   2.459512   1.420000   0.000000
     5  C    2.459512   2.840000   2.459512   1.420000   0.000000
     6  C    1.420000   2.459512   2.840000   2.459512   1.420000
     7  C    2.459512   1.420000   2.459512   3.756967   4.260000
     8  C    3.756967   2.459512   1.420000   2.459512   3.756967
     9  C    3.756967   2.840000   3.756967   5.119883   5.680000
    10  C    5.119883   3.756967   2.840000   3.756967   5.119883
    11  C    5.119883   4.260000   5.119883   6.507257   7.100000
    12  C    6.507257   5.119883   4.260000   5.119883   6.507257
    13  C    6.507257   5.680000   6.507257   7.906225   8.520000
    14  C    7.906225   6.507257   5.680000   6.507257   7.906225
    15  H    1.090000   2.179977   3.446839   3.930000   3.446839
    16  H    3.930000   3.446839   2.179977   1.090000   2.179977
    17  H    3.446839   3.930000   3.446839   2.179977   1.090000
    18  H    2.179977   3.446839   3.930000   3.446839   2.179977
    19  Co   4.094142   2.705083   2.705083   4.094142   5.119231
    20  H   10.527407  10.013776  11.023561  12.381951  12.800910
    21  H    8.030672   7.583225   8.670888   9.992482  10.336155
    22  H   11.804232  11.030000  11.804232  13.217333  13.870000
    23  H   11.023561  10.013776  10.527407  11.942366  12.800910
    24  C    9.940000   9.311563  10.239766  11.623201  12.132485
    25  C   10.720765   9.940000  10.720765  12.132485  12.780000
    26  C   10.239766   9.311563   9.940000  11.360000  12.132485
    27  C    8.867897   7.906225   8.520000   9.940000  10.720765
    28  C    7.906225   7.100000   7.906225   9.311563   9.940000
    29  C    8.520000   7.906225   8.867897  10.239766  10.720765
    30  Fe   6.692058   5.537945   5.944671   7.356914   8.260689
    31  C    8.637523   7.513934   7.906225   9.311563  10.239766
    32  C    8.637523   7.378536   7.513934   8.867897   9.940000
    33  C    8.867897   7.513934   7.378536   8.637523   9.838049
    34  C    9.311563   7.906225   7.513934   8.637523   9.940000
    35  C    9.940000   8.520000   7.906225   8.867897  10.239766
    36  C   11.360000   9.940000   9.311563  10.239766  11.623201
    37  C   12.132485  10.720765   9.940000  10.720765  12.132485
    38  C   11.623201  10.239766   9.311563   9.940000  11.360000
    39  C   10.239766   8.867897   7.906225   8.520000   9.940000
    40  C    9.311563   7.906225   7.100000   7.906225   9.311563
    41  H   11.942366  10.527407  10.013776  11.023561  12.381951
    42  H   13.217333  11.804232  11.030000  11.804232  13.217333
    43  H   12.381951  11.023561  10.013776  10.527407  11.942366
    44  H    9.992482   8.670888   7.583225   8.030672   9.442304
                    6          7          8          9         10
     6  C    0.000000
     7  C    3.756967   0.000000
     8  C    4.260000   2.840000   0.000000
     9  C    5.119883   1.420000   3.756967   0.000000
    10  C    5.680000   3.756967   1.420000   4.260000   0.000000
    11  C    6.507257   2.840000   4.919024   1.420000   5.119883
    12  C    7.100000   4.919024   2.840000   5.119883   1.420000
    13  C    7.906225   4.260000   6.189636   2.840000   6.189636
    14  C    8.520000   6.189636   4.260000   6.189636   2.840000
    15  H    2.179977   2.690223   4.636173   3.708787   5.927925
    16  H    3.446839   4.636173   2.690223   5.927925   3.708787
    17  H    2.179977   5.350000   4.636173   6.770000   5.927925
    18  H    1.090000   4.636173   5.350000   5.927925   6.770000
    19  Co   5.119231   1.980441   1.980441   2.135327   2.135327
    20  H   11.942366   8.633140  10.817463   7.267689  10.795782
    21  H    9.442304   6.236113   8.616676   4.930081   8.794470
    22  H   13.217333   9.610000  11.300889   8.190000  10.959612
    23  H   12.381951   8.633140   9.779177   7.267689   9.190816
    24  C   11.360000   7.906225   9.940000   6.507257   9.838049
    25  C   12.132485   8.520000  10.239766   7.100000   9.940000
    26  C   11.623201   7.906225   9.311563   6.507257   8.867897
    27  C   10.239766   6.507257   7.906225   5.119883   7.513934
    28  C    9.311563   5.680000   7.513934   4.260000   7.378536
    29  C    9.940000   6.507257   8.637523   5.119883   8.637523
    30  Fe   7.972999   4.234733   5.222405   3.038074   4.820862
    31  C    9.940000   6.189637   7.100000   4.919024   6.507257
    32  C    9.838049   6.189637   6.507257   5.119883   5.680000
    33  C    9.940000   6.507257   6.189637   5.680000   5.119883
    34  C   10.239766   7.100000   6.189637   6.507257   4.919024
    35  C   10.720765   7.906225   6.507257   7.513934   5.119883
    36  C   12.132485   9.311563   7.906225   8.867897   6.507257
    37  C   12.780000  10.239766   8.520000   9.940000   7.100000
    38  C   12.132485   9.940000   7.906225   9.838049   6.507257
    39  C   10.720765   8.637523   6.507257   8.637523   5.119883
    40  C    9.940000   7.513934   5.680000   7.378536   4.260000
    41  H   12.800910   9.779177   8.633140   9.190816   7.267689
    42  H   13.870000  11.300889   9.610000  10.959612   8.190000
    43  H   12.800910  10.817463   8.633140  10.795782   7.267689
    44  H   10.336155   8.616676   6.236113   8.794470   4.930081
                   11         12         13         14         15
    11  C    0.000000
    12  C    5.680000   0.000000
    13  C    1.420000   6.507257   0.000000
    14  C    6.507257   1.420000   7.100000   0.000000
    15  H    4.930081   7.267689   6.236113   8.633140   0.000000
    16  H    7.267689   4.930081   8.633140   6.236113   5.020000
    17  H    8.190000   7.267689   9.610000   8.633140   4.347448
    18  H    7.267689   8.190000   8.633140   9.610000   2.510000
    19  Co   3.038074   3.038074   4.234733   4.234733   4.587559
    20  H    5.927925  10.959612   4.636173  11.300889   9.940000
    21  H    3.708787   9.190816   2.690223   9.779177   7.430000
    22  H    6.770000  10.795782   5.350000  10.817463  11.404083
    23  H    5.927925   8.794470   4.636173   8.616676  10.849143
    24  C    5.119883   9.940000   3.756967  10.239766   9.442304
    25  C    5.680000   9.838049   4.260000   9.940000  10.336155
    26  C    5.119883   8.637523   3.756967   8.637523   9.992482
    27  C    3.756967   7.378536   2.459512   7.513934   8.670888
    28  C    2.840000   7.513934   1.420000   7.906225   7.583225
    29  C    3.756967   8.867897   2.459512   9.311563   8.030672
    30  Fe   2.135327   4.820862   1.980441   5.222405   6.744065
    31  C    3.756967   6.189636   2.840000   6.189637   8.616676
    32  C    4.260000   5.119883   3.756967   4.919024   8.794470
    33  C    5.119883   4.260000   4.919024   3.756967   9.190816
    34  C    6.189636   3.756967   6.189637   2.840000   9.779177
    35  C    7.378536   3.756967   7.513934   2.459512  10.527407
    36  C    8.637523   5.119883   8.637523   3.756967  11.942366
    37  C    9.838049   5.680000   9.940000   4.260000  12.800910
    38  C    9.940000   5.119883  10.239766   3.756967  12.381951
    39  C    8.867897   3.756967   9.311563   2.459512  11.023561
    40  C    7.513934   2.840000   7.906225   1.420000  10.013776
    41  H    8.794470   5.927925   8.616676   4.636173  12.450000
    42  H   10.795782   6.770000  10.817463   5.350000  13.876314
    43  H   10.959612   5.927925  11.300889   4.636173  13.187221
    44  H    9.190816   3.708787   9.779177   2.690223  10.849143
                   16         17         18         19         20
    16  H    0.000000
    17  H    2.510000   0.000000
    18  H    4.347448   2.510000   0.000000
    19  Co   4.587559   6.143281   6.143281   0.000000
    20  H   13.187221  13.876314  12.450000   8.870570   0.000000
    21  H   10.849143  11.404083   9.940000   6.744065   2.510000
    22  H   13.876314  14.960000  13.876314   9.324281   2.510000
    23  H   12.450000  13.876314  13.187221   7.873552   4.347448
    24  C   12.381951  13.217333  11.942366   7.972999   1.090000
    25  C   12.800910  13.870000  12.800910   8.260689   2.179977
    26  C   11.942366  13.217333  12.381951   7.356914   3.446839
    27  C   10.527407  11.804232  11.023561   5.944671   3.930000
    28  C   10.013776  11.030000  10.013776   5.537945   3.446839
    29  C   11.023561  11.804232  10.527407   6.692058   2.179977
    30  Fe   7.873552   9.324281   8.870570   3.288925   6.143281
    31  C    9.779177  11.300889  10.817463   5.222405   5.350000
    32  C    9.190816  10.959612  10.795782   4.820862   6.770000
    33  C    8.794470  10.795782  10.959612   4.820862   8.190000
    34  C    8.616676  10.817463  11.300889   5.222405   9.610000
    35  C    8.670888  11.023561  11.804232   5.944671  11.030000
    36  C    9.992482  12.381951  13.217333   7.356914  11.804232
    37  C   10.336155  12.800910  13.870000   8.260689  13.217333
    38  C    9.442304  11.942366  13.217333   7.972999  13.870000
    39  C    8.030672  10.527407  11.804232   6.692058  13.217333
    40  C    7.583225  10.013776  11.030000   5.537945  11.804232
    41  H   10.849143  13.187221  13.876314   7.873552  11.404083
    42  H   11.404083  13.876314  14.960000   9.324281  13.876314
    43  H    9.940000  12.450000  13.876314   8.870570  14.960000
    44  H    7.430000   9.940000  11.404083   6.744065  13.876314
                   21         22         23         24         25
    21  H    0.000000
    22  H    4.347448   0.000000
    23  H    5.020000   2.510000   0.000000
    24  C    2.179977   2.179977   3.446839   0.000000
    25  C    3.446839   1.090000   2.179977   1.420000   0.000000
    26  C    3.930000   2.179977   1.090000   2.459512   1.420000
    27  C    3.446839   3.446839   2.179977   2.840000   2.459512
    28  C    2.179977   3.930000   3.446839   2.459512   2.840000
    29  C    1.090000   3.446839   3.930000   1.420000   2.459512
    30  Fe   4.587559   6.143281   4.587559   5.119231   5.119231
    31  C    4.636173   4.636173   2.690223   4.260000   3.756967
    32  C    5.927925   5.927925   3.708787   5.680000   5.119883
    33  C    7.267689   7.267689   4.930081   7.100000   6.507257
    34  C    8.633140   8.633140   6.236113   8.520000   7.906225
    35  C   10.013776  10.013776   7.583225   9.940000   9.311563
    36  C   11.023561  10.527407   8.030672  10.720765   9.940000
    37  C   12.381951  11.942366   9.442304  12.132485  11.360000
    38  C   12.800910  12.800910  10.336155  12.780000  12.132485
    39  C   11.942366  12.381951   9.992482  12.132485  11.623201
    40  C   10.527407  11.023561   8.670888  10.720765  10.239766
    41  H   10.849143   9.940000   7.430000  10.336155   9.442304
    42  H   13.187221  12.450000   9.940000  12.800910  11.942366
    43  H   13.876314  13.876314  11.404083  13.870000  13.217333
    44  H   12.450000  13.187221  10.849143  12.800910  12.381951
                   26         27         28         29         30
    26  C    0.000000
    27  C    1.420000   0.000000
    28  C    2.459512   1.420000   0.000000
    29  C    2.840000   2.459512   1.420000   0.000000
    30  Fe   4.094142   2.705083   2.705083   4.094142   0.000000
    31  C    2.459512   1.420000   2.459512   3.756967   1.980441
    32  C    3.756967   2.840000   3.756967   5.119883   2.135327
    33  C    5.119883   4.260000   5.119883   6.507257   3.038074
    34  C    6.507257   5.680000   6.507257   7.906225   4.234733
    35  C    7.906225   7.100000   7.906225   9.311563   5.537945
    36  C    8.520000   7.906225   8.867897  10.239766   6.692058
    37  C    9.940000   9.311563  10.239766  11.623201   7.972999
    38  C   10.720765   9.940000  10.720765  12.132485   8.260689
    39  C   10.239766   9.311563   9.940000  11.360000   7.356914
    40  C    8.867897   7.906225   8.520000   9.940000   5.944671
    41  H    8.030672   7.583225   8.670888   9.992482   6.744065
    42  H   10.527407  10.013776  11.023561  12.381951   8.870570
    43  H   11.804232  11.030000  11.804232  13.217333   9.324281
    44  H   11.023561  10.013776  10.527407  11.942366   7.873552
                   31         32         33         34         35
    31  C    0.000000
    32  C    1.420000   0.000000
    33  C    2.840000   1.420000   0.000000
    34  C    4.260000   2.840000   1.420000   0.000000
    35  C    5.680000   4.260000   2.840000   1.420000   0.000000
    36  C    6.507257   5.119883   3.756967   2.459512   1.420000
    37  C    7.906225   6.507257   5.119883   3.756967   2.459512
    38  C    8.520000   7.100000   5.680000   4.260000   2.840000
    39  C    7.906225   6.507257   5.119883   3.756967   2.459512
    40  C    6.507257   5.119883   3.756967   2.459512   1.420000
    41  H    6.236113   4.930081   3.708787   2.690223   2.179977
    42  H    8.633140   7.267689   5.927925   4.636173   3.446839
    43  H    9.610000   8.190000   6.770000   5.350000   3.930000
    44  H    8.633140   7.267689   5.927925   4.636173   3.446839
                   36         37         38         39         40
    36  C    0.000000
    37  C    1.420000   0.000000
    38  C    2.459512   1.420000   0.000000
    39  C    2.840000   2.459512   1.420000   0.000000
    40  C    2.459512   2.840000   2.459512   1.420000   0.000000
    41  H    1.090000   2.179977   3.446839   3.930000   3.446839
    42  H    2.179977   1.090000   2.179977   3.446839   3.930000
    43  H    3.446839   2.179977   1.090000   2.179977   3.446839
    44  H    3.930000   3.446839   2.179977   1.090000   2.179977
                   41         42         43         44
    41  H    0.000000
    42  H    2.510000   0.000000
    43  H    4.347448   2.510000   0.000000
    44  H    5.020000   4.347448   2.510000   0.000000
 Stoichiometry    C30H12CoFe(2)
 Framework group  CS[SG(C30H12CoFe)]
 Deg. of freedom    85
 Full point group                 CS      NOp   2
 Largest Abelian subgroup         CS      NOp   2
 Largest concise Abelian subgroup C1      NOp   1
                         Standard orientation:                         
 ---------------------------------------------------------------------
 Center     Atomic      Atomic             Coordinates (Angstroms)
 Number     Number       Type             X           Y           Z
 ---------------------------------------------------------------------
      1          6           0       -3.893800   -4.253288   -0.000000
      2          6           0       -2.664044   -3.543288   -0.000000
      3          6           0       -1.434288   -4.253288   -0.000000
      4          6           0       -1.434288   -5.673288   -0.000000
      5          6           0       -2.664044   -6.383288   -0.000000
      6          6           0       -3.893800   -5.673288   -0.000000
      7          6           0       -2.664044   -2.123288   -0.000000
      8          6           0       -0.204532   -3.543288   -0.000000
      9          6           0       -2.664044   -0.703288    0.000000
     10          6           0        1.025224   -2.833288   -0.000000
     11          6           0       -2.664044    0.716712    0.000000
     12          6           0        2.254981   -2.123288   -0.000000
     13          6           0       -2.664044    2.136712    0.000000
     14          6           0        3.484737   -1.413288   -0.000000
     15          1           0       -4.837768   -3.708288   -0.000000
     16          1           0       -0.490320   -6.218288   -0.000000
     17          1           0       -2.664044   -7.473288   -0.000000
     18          1           0       -4.837768   -6.218288   -0.000000
     19         27           0       -0.744044   -1.637750   -0.000000
     20          1           0       -4.837768    6.231712    0.000000
     21          1           0       -4.837768    3.721712    0.000000
     22          1           0       -2.664044    7.486712    0.000000
     23          1           0       -0.490320    6.231712    0.000000
     24          6           0       -3.893800    5.686712    0.000000
     25          6           0       -2.664044    6.396712    0.000000
     26          6           0       -1.434288    5.686712    0.000000
     27          6           0       -1.434288    4.266712    0.000000
     28          6           0       -2.664044    3.556712    0.000000
     29          6           0       -3.893800    4.266712    0.000000
     30         26           0       -0.744044    1.651175    0.000000
     31          6           0       -0.204532    3.556712    0.000000
     32          6           0        1.025224    2.846712    0.000000
     33          6           0        2.254981    2.136712    0.000000
     34          6           0        3.484737    1.426712   -0.000000
     35          6           0        4.714493    0.716712   -0.000000
     36          6           0        5.944249    1.426712   -0.000000
     37          6           0        7.174005    0.716712   -0.000000
     38          6           0        7.174005   -0.703288   -0.000000
     39          6           0        5.944249   -1.413288   -0.000000
     40          6           0        4.714493   -0.703288   -0.000000
     41          1           0        5.944249    2.516712   -0.000000
     42          1           0        8.117973    1.261712   -0.000000
     43          1           0        8.117973   -1.248288   -0.000000
     44          1           0        5.944249   -2.503288   -0.000000
 ---------------------------------------------------------------------
 Rotational constants (GHZ):           0.1022880           0.0977084           0.0499729
 Standard basis: 6-31G(d) (6D, 7F)
 There are   408 symmetry adapted cartesian basis functions of A'  symmetry.
 There are   144 symmetry adapted cartesian basis functions of A"  symmetry.
 There are   404 symmetry adapted basis functions of A'  symmetry.
 There are   142 symmetry adapted basis functions of A"  symmetry.
   546 basis functions,  1096 primitive gaussians,   552 cartesian basis functions
   123 alpha electrons      122 beta electrons
       nuclear repulsion energy      3413.4343411117 Hartrees.
 NAtoms=   44 NActive=   44 NUniq=   44 SFac= 1.00D+00 NAtFMM=   60 NAOKFM=F Big=F
 Integral buffers will be    131072 words long.
 Raffenetti 2 integral format.
 Two-electron integral symmetry is turned on.
 One-electron integrals computed using PRISM.
 PrsmSu:  requested number of processors reduced to:  12 ShMem   1 Linda.
 NBasis=   546 RedAO= T EigKep=  3.41D-05  NBF=   404   142
 NBsUse=   546 1.00D-06 EigRej= -1.00D+00 NBFU=   404   142
 ExpMin= 4.11D-02 ExpMax= 6.61D+04 ExpMxC= 9.93D+03 IAcc=3 IRadAn=         5 AccDes= 0.00D+00
 Harris functional with IExCor=  402 and IRadAn=       5 diagonalized for initial guess.
 HarFok:  IExCor=  402 AccDes= 0.00D+00 IRadAn=         5 IDoV= 1 UseB2=F ITyADJ=14
 ICtDFT=  3500011 ScaDFX=  1.000000  1.000000  1.000000  1.000000
 FoFCou: FMM=F IPFlag=           0 FMFlag=      100000 FMFlg1=           0
         NFxFlg=           0 DoJE=T BraDBF=F KetDBF=T FulRan=T
         wScrn=  0.000000 ICntrl=       500 IOpCl=  0 I1Cent=   200000004 NGrid=           0
         NMat0=    1 NMatS0=      1 NMatT0=    0 NMatD0=    1 NMtDS0=    0 NMtDT0=    0
 Petite list used in FoFCou.
 Initial guess orbital symmetries:
 Alpha Orbitals:
       Occupied  (A') (A') (A') (A') (A') (A') (A") (A') (A') (A")
                 (A') (A') (A') (A') (A') (A') (A') (A') (A') (A')
                 (A') (A') (A') (A') (A') (A') (A') (A') (A') (A')
                 (A') (A') (A') (A') (A') (A') (A') (A') (A') (A')
                 (A') (A') (A') (A') (A") (A') (A') (A") (A') (A')
                 (A') (A') (A') (A') (A') (A') (A') (A') (A') (A')
                 (A') (A') (A') (A') (A') (A') (A') (A') (A') (A')
                 (A') (A') (A') (A') (A') (A') (A') (A') (A') (A')
                 (A') (A') (A') (A') (A') (A') (A') (A') (A') (A')
                 (A') (A') (A') (A") (A") (A") (A') (A') (A") (A")
                 (A") (A') (A") (A") (A") (A') (A") (A") (A") (A')
                 (A') (A") (A') (A") (A") (A') (A') (A") (A') (A')
                 (A") (A") (A')
       Virtual   (A") (A") (A") (A') (A") (A") (A") (A') (A") (A')
                 (A") (A") (A") (A') (A') (A') (A") (A') (A') (A')
                 (A') (A") (A") (A') (A") (A') (A') (A') (A') (A")
                 (A') (A') (A") (A") (A') (A') (A') (A') (A') (A")
                 (A') (A') (A') (A') (A') (A') (A') (A') (A') (A')
                 (A') (A') (A') (A') (A') (A") (A') (A') (A') (A')
                 (A') (A') (A') (A') (A') (A') (A") (A') (A') (A')
                 (A') (A') (A') (A') (A') (A') (A') (A') (A") (A')
                 (A') (A') (A") (A") (A') (A') (A') (A") (A') (A')
                 (A') (A') (A") (A") (A') (A") (A') (A') (A') (A')
                 (A") (A') (A") (A") (A') (A") (A') (A") (A") (A')
                 (A') (A") (A") (A") (A") (A') (A") (A') (A') (A")
                 (A") (A') (A") (A') (A') (A') (A") (A') (A') (A')
                 (A") (A") (A') (A') (A') (A') (A') (A') (A') (A')
                 (A') (A") (A') (A') (A') (A') (A") (A') (A") (A')
                 (A') (A') (A') (A') (A') (A') (A") (A") (A') (A')
                 (A') (A') (A') (A') (A') (A') (A') (A') (A') (A")
                 (A') (A') (A') (A') (A') (A') (A') (A') (A') (A')
                 (A') (A') (A') (A') (A') (A') (A") (A') (A') (A')
                 (A") (A') (A") (A") (A') (A') (A") (A") (A') (A')
                 (A') (A') (A") (A") (A') (A') (A") (A') (A') (A")
                 (A") (A") (A") (A') (A") (A') (A") (A") (A") (A')
                 (A") (A") (A") (A') (A") (A') (A') (A') (A") (A')
                 (A") (A') (A") (A') (A") (A') (A") (A") (A') (A')
                 (A') (A') (A') (A") (A') (A') (A') (A') (A") (A')
                 (A') (A') (A') (A") (A') (A') (A") (A') (A") (A')
                 (A') (A') (A") (A') (A') (A") (A") (A') (A") (A')
                 (A') (A') (A") (A') (A') (A') (A') (A") (A') (A')
                 (A') (A") (A') (A") (A') (A') (A') (A') (A') (A")
                 (A") (A') (A') (A") (A') (A') (A') (A') (A') (A')
                 (A') (A") (A") (A") (A') (A") (A") (A') (A') (A')
                 (A") (A") (A") (A") (A') (A") (A") (A') (A') (A")
                 (A') (A') (A") (A') (A') (A') (A") (A') (A") (A')
                 (A") (A") (A") (A') (A") (A') (A') (A') (A') (A')
                 (A') (A") (A') (A") (A') (A') (A') (A") (A') (A")
                 (A") (A') (A') (A') (A') (A') (A') (A') (A') (A')
                 (A') (A') (A') (A') (A') (A') (A') (A') (A') (A')
                 (A") (A") (A') (A') (A") (A') (A') (A') (A') (A')
                 (A') (A') (A') (A') (A') (A') (A') (A') (A') (A')
                 (A') (A') (A') (A') (A') (A') (A') (A') (A') (A')
                 (A') (A') (A') (A') (A') (A') (A') (A') (A') (A')
                 (A') (A') (A') (A') (A') (A') (A') (A') (A') (A')
                 (A') (A') (A')
 Beta  Orbitals:
       Occupied  (A') (A') (A') (A') (A') (A') (A") (A') (A') (A")
                 (A') (A') (A') (A') (A') (A') (A') (A') (A') (A')
                 (A') (A') (A') (A') (A') (A') (A') (A') (A') (A')
                 (A') (A') (A') (A') (A') (A') (A') (A') (A') (A')
                 (A') (A') (A') (A') (A") (A') (A') (A") (A') (A')
                 (A') (A') (A') (A') (A') (A') (A') (A') (A') (A')
                 (A') (A') (A') (A') (A') (A') (A') (A') (A') (A')
                 (A') (A') (A') (A') (A') (A') (A') (A') (A') (A')
                 (A') (A') (A') (A') (A') (A') (A') (A') (A') (A')
                 (A') (A') (A') (A") (A") (A") (A') (A') (A") (A")
                 (A") (A') (A") (A") (A") (A') (A") (A") (A") (A')
                 (A') (A") (A') (A") (A") (A') (A') (A") (A') (A')
                 (A") (A")
       Virtual   (A') (A") (A") (A") (A') (A") (A") (A") (A') (A")
                 (A') (A") (A") (A") (A') (A') (A') (A") (A') (A')
                 (A') (A') (A") (A") (A') (A") (A') (A') (A') (A')
                 (A") (A') (A') (A") (A") (A') (A') (A') (A') (A')
                 (A") (A') (A') (A') (A') (A') (A') (A') (A') (A')
                 (A') (A') (A') (A') (A') (A') (A") (A') (A') (A')
                 (A') (A') (A') (A') (A') (A') (A') (A") (A') (A')
                 (A') (A') (A') (A') (A') (A') (A') (A') (A') (A")
                 (A') (A') (A') (A") (A") (A') (A') (A') (A") (A')
                 (A') (A') (A') (A") (A") (A') (A") (A') (A') (A')
                 (A') (A") (A') (A") (A") (A') (A") (A') (A") (A")
                 (A') (A') (A") (A") (A") (A") (A') (A") (A') (A')
                 (A") (A") (A') (A") (A') (A') (A') (A") (A') (A')
                 (A') (A") (A") (A') (A') (A') (A') (A') (A') (A')
                 (A') (A') (A") (A') (A') (A') (A') (A") (A') (A")
                 (A') (A') (A') (A') (A') (A') (A') (A") (A") (A')
                 (A') (A') (A') (A') (A') (A') (A') (A') (A') (A')
                 (A") (A') (A') (A') (A') (A') (A') (A') (A') (A')
                 (A') (A') (A') (A') (A') (A') (A') (A") (A') (A')
                 (A') (A") (A') (A") (A") (A') (A') (A") (A") (A')
                 (A') (A') (A') (A") (A") (A') (A') (A") (A') (A')
                 (A") (A") (A") (A") (A') (A") (A') (A") (A") (A")
                 (A') (A") (A") (A") (A') (A") (A') (A') (A') (A")
                 (A') (A") (A') (A") (A') (A") (A') (A") (A") (A')
                 (A') (A') (A') (A') (A") (A') (A') (A') (A') (A")
                 (A') (A') (A') (A') (A") (A') (A') (A") (A') (A")
                 (A') (A') (A') (A") (A') (A') (A") (A") (A') (A")
                 (A') (A') (A') (A") (A') (A') (A') (A') (A") (A')
                 (A') (A') (A") (A') (A") (A') (A') (A') (A') (A')
                 (A") (A") (A') (A') (A") (A') (A') (A') (A') (A')
                 (A') (A') (A") (A") (A") (A') (A") (A") (A') (A')
                 (A') (A") (A") (A") (A") (A') (A") (A") (A') (A')
                 (A") (A') (A') (A") (A') (A') (A') (A") (A') (A")
                 (A') (A") (A") (A") (A') (A") (A') (A') (A') (A')
                 (A') (A') (A") (A') (A") (A') (A') (A') (A") (A')
                 (A") (A") (A') (A') (A') (A') (A') (A') (A') (A')
                 (A') (A') (A') (A') (A') (A') (A') (A') (A') (A')
                 (A') (A") (A") (A') (A') (A") (A') (A') (A') (A')
                 (A') (A') (A') (A') (A') (A') (A') (A') (A') (A')
                 (A') (A') (A') (A') (A') (A') (A') (A') (A') (A')
                 (A') (A') (A') (A') (A') (A') (A') (A') (A') (A')
                 (A') (A') (A') (A') (A') (A') (A') (A') (A') (A')
                 (A') (A') (A') (A')
 The electronic state of the initial guess is 2-A'.
 Initial guess <Sx>= 0.0000 <Sy>= 0.0000 <Sz>= 0.5000 <S**2>= 0.7500 S= 0.5000
 Requested convergence on RMS density matrix=1.00D-08 within  32 cycles.
 Requested convergence on MAX density matrix=1.00D-06.
 Requested convergence on             energy=1.00D-06.
 No special actions if energy rises.
 EnCoef did     2 forward-backward iterations
 EnCoef did   100 forward-backward iterations
 EnCoef did   100 forward-backward iterations
 EnCoef did   100 forward-backward iterations
 EnCoef did   100 forward-backward iterations
 EnCoef did     5 forward-backward iterations
 EnCoef did   100 forward-backward iterations
 EnCoef did   100 forward-backward iterations
 EnCoef did     5 forward-backward iterations
 EnCoef did   100 forward-backward iterations
 EnCoef did     3 forward-backward iterations
 Restarting incremental Fock formation.
 >>>>>>>>>> Convergence criterion not met.
 SCF Done:  E(UB3LYP) =  -3796.06880120     A.U. after   33 cycles
            NFock= 32  Conv=0.10D-04     -V/T= 2.0050
 <Sx>= 0.0000 <Sy>= 0.0000 <Sz>= 0.5000 <S**2>= 2.8849 S= 1.2706
 <L.S>=  0.00000000000    
 Annihilation of the first spin contaminant:
 S**2 before annihilation     2.8849,   after     6.1215
 LinEq1:  Iter=  0 NonCon=     1 RMS=9.75D-06 Max=1.39D-03 NDo=     1
 AX will form     1 AO Fock derivatives at one time.
 LinEq1:  Iter=  1 NonCon=     1 RMS=3.04D-05 Max=6.18D-03 NDo=     1
 LinEq1:  Iter=  2 NonCon=     1 RMS=5.11D-05 Max=5.74D-03 NDo=     1
 LinEq1:  Iter=  3 NonCon=     1 RMS=6.29D-05 Max=6.67D-03 NDo=     1
 LinEq1:  Iter=  4 NonCon=     1 RMS=1.74D-04 Max=2.00D-02 NDo=     1
 LinEq1:  Iter=  5 NonCon=     1 RMS=4.34D-04 Max=4.14D-02 NDo=     1
 LinEq1:  Iter=  6 NonCon=     1 RMS=4.44D-04 Max=2.72D-02 NDo=     1
 LinEq1:  Iter=  7 NonCon=     1 RMS=5.77D-04 Max=4.78D-02 NDo=     1
 LinEq1:  Iter=  8 NonCon=     1 RMS=7.73D-04 Max=5.98D-02 NDo=     1
 LinEq1:  Iter=  9 NonCon=     1 RMS=8.24D-04 Max=5.00D-02 NDo=     1
 LinEq1:  Iter= 10 NonCon=     1 RMS=1.05D-03 Max=7.42D-02 NDo=     1
 LinEq1:  Iter= 11 NonCon=     1 RMS=1.19D-03 Max=7.55D-02 NDo=     1
 LinEq1:  Iter= 12 NonCon=     1 RMS=1.04D-03 Max=5.04D-02 NDo=     1
 LinEq1:  Iter= 13 NonCon=     1 RMS=9.16D-04 Max=4.55D-02 NDo=     1
 LinEq1:  Iter= 14 NonCon=     1 RMS=9.55D-04 Max=4.44D-02 NDo=     1
 LinEq1:  Iter= 15 NonCon=     1 RMS=9.03D-04 Max=8.67D-02 NDo=     1
 LinEq1:  Iter= 16 NonCon=     1 RMS=1.11D-03 Max=6.79D-02 NDo=     1
 LinEq1:  Iter= 17 NonCon=     1 RMS=9.97D-04 Max=8.10D-02 NDo=     1
 LinEq1:  Iter= 18 NonCon=     1 RMS=1.04D-03 Max=5.75D-02 NDo=     1
 LinEq1:  Iter= 19 NonCon=     1 RMS=7.14D-04 Max=5.16D-02 NDo=     1
 LinEq1:  Iter= 20 NonCon=     1 RMS=7.40D-04 Max=3.73D-02 NDo=     1
 LinEq1:  Iter= 21 NonCon=     1 RMS=7.17D-04 Max=3.80D-02 NDo=     1
 LinEq1:  Iter= 22 NonCon=     1 RMS=8.11D-04 Max=3.36D-02 NDo=     1
 LinEq1:  Iter= 23 NonCon=     1 RMS=7.84D-04 Max=5.01D-02 NDo=     1
 LinEq1:  Iter= 24 NonCon=     1 RMS=8.46D-04 Max=6.39D-02 NDo=     1
 LinEq1:  Iter= 25 NonCon=     1 RMS=7.97D-04 Max=6.06D-02 NDo=     1
 LinEq1:  Iter= 26 NonCon=     1 RMS=5.32D-04 Max=3.47D-02 NDo=     1
 LinEq1:  Iter= 27 NonCon=     1 RMS=4.35D-04 Max=2.49D-02 NDo=     1
 LinEq1:  Iter= 28 NonCon=     1 RMS=2.76D-04 Max=1.56D-02 NDo=     1
 LinEq1:  Iter= 29 NonCon=     1 RMS=1.68D-04 Max=9.31D-03 NDo=     1
 LinEq1:  Iter= 30 NonCon=     1 RMS=1.22D-04 Max=6.30D-03 NDo=     1
 LinEq1:  Iter= 31 NonCon=     1 RMS=9.62D-05 Max=5.88D-03 NDo=     1
 LinEq1:  Iter= 32 NonCon=     1 RMS=6.15D-05 Max=4.13D-03 NDo=     1
 LinEq1:  Iter= 33 NonCon=     1 RMS=4.90D-05 Max=4.04D-03 NDo=     1
 LinEq1:  Iter= 34 NonCon=     1 RMS=3.33D-05 Max=2.33D-03 NDo=     1
 LinEq1:  Iter= 35 NonCon=     1 RMS=2.09D-05 Max=1.03D-03 NDo=     1
 LinEq1:  Iter= 36 NonCon=     1 RMS=1.55D-05 Max=7.46D-04 NDo=     1
 LinEq1:  Iter= 37 NonCon=     1 RMS=8.57D-06 Max=4.04D-04 NDo=     1
 LinEq1:  Iter= 38 NonCon=     1 RMS=6.83D-06 Max=3.44D-04 NDo=     1
 LinEq1:  Iter= 39 NonCon=     1 RMS=4.08D-06 Max=2.26D-04 NDo=     1
 LinEq1:  Iter= 40 NonCon=     1 RMS=2.62D-06 Max=1.40D-04 NDo=     1
 LinEq1:  Iter= 41 NonCon=     1 RMS=2.42D-06 Max=1.87D-04 NDo=     1
 LinEq1:  Iter= 42 NonCon=     1 RMS=1.16D-06 Max=6.20D-05 NDo=     1
 LinEq1:  Iter= 43 NonCon=     1 RMS=6.66D-07 Max=3.59D-05 NDo=     1
 LinEq1:  Iter= 44 NonCon=     1 RMS=5.60D-07 Max=2.70D-05 NDo=     1
 LinEq1:  Iter= 45 NonCon=     1 RMS=3.37D-07 Max=1.52D-05 NDo=     1
 LinEq1:  Iter= 46 NonCon=     1 RMS=2.56D-07 Max=1.07D-05 NDo=     1
 LinEq1:  Iter= 47 NonCon=     1 RMS=1.46D-07 Max=8.78D-06 NDo=     1
 LinEq1:  Iter= 48 NonCon=     1 RMS=7.92D-08 Max=3.65D-06 NDo=     1
 LinEq1:  Iter= 49 NonCon=     1 RMS=6.63D-08 Max=3.66D-06 NDo=     1
 LinEq1:  Iter= 50 NonCon=     1 RMS=3.73D-08 Max=1.98D-06 NDo=     1
 LinEq1:  Iter= 51 NonCon=     1 RMS=2.96D-08 Max=9.56D-07 NDo=     1
 LinEq1:  Iter= 52 NonCon=     1 RMS=1.51D-08 Max=1.05D-06 NDo=     1
 LinEq1:  Iter= 53 NonCon=     1 RMS=6.02D-09 Max=6.05D-07 NDo=     1
 LinEq1:  Iter= 54 NonCon=     1 RMS=3.53D-09 Max=1.92D-07 NDo=     1
 LinEq1:  Iter= 55 NonCon=     1 RMS=3.08D-09 Max=1.30D-07 NDo=     1
 LinEq1:  Iter= 56 NonCon=     1 RMS=1.67D-09 Max=8.42D-08 NDo=     1
 LinEq1:  Iter= 57 NonCon=     1 RMS=1.46D-09 Max=9.43D-08 NDo=     1
 LinEq1:  Iter= 58 NonCon=     0 RMS=7.81D-10 Max=3.95D-08 NDo=     1
 Linear equations converged to 7.952D-09 7.952D-08 after    58 iterations.
     Accept linear search using points  1 and  2.
     Minimum is close to point  2 DX= -5.13D-03 DF= -2.79D-10 DXR=  5.16D-03 DFR=  2.67D-05 which will be used.
 LinEq1:  Iter=  0 NonCon=     1 RMS=5.58D-07 Max=9.63D-05 NDo=     1
 LinEq1:  Iter=  1 NonCon=     1 RMS=1.91D-06 Max=2.85D-04 NDo=     1
 LinEq1:  Iter=  2 NonCon=     1 RMS=1.42D-06 Max=2.45D-04 NDo=     1
 LinEq1:  Iter=  3 NonCon=     1 RMS=2.72D-06 Max=1.84D-04 NDo=     1
 LinEq1:  Iter=  4 NonCon=     1 RMS=7.84D-06 Max=1.20D-03 NDo=     1
 LinEq1:  Iter=  5 NonCon=     1 RMS=8.06D-06 Max=5.11D-04 NDo=     1
 LinEq1:  Iter=  6 NonCon=     1 RMS=1.03D-05 Max=7.74D-04 NDo=     1
 LinEq1:  Iter=  7 NonCon=     1 RMS=1.21D-05 Max=8.93D-04 NDo=     1
 LinEq1:  Iter=  8 NonCon=     1 RMS=1.40D-05 Max=9.37D-04 NDo=     1
 LinEq1:  Iter=  9 NonCon=     1 RMS=1.73D-05 Max=1.64D-03 NDo=     1
 LinEq1:  Iter= 10 NonCon=     1 RMS=2.50D-05 Max=2.23D-03 NDo=     1
 LinEq1:  Iter= 11 NonCon=     1 RMS=3.48D-05 Max=1.86D-03 NDo=     1
 LinEq1:  Iter= 12 NonCon=     1 RMS=4.06D-05 Max=2.52D-03 NDo=     1
 LinEq1:  Iter= 13 NonCon=     1 RMS=4.62D-05 Max=4.36D-03 NDo=     1
 LinEq1:  Iter= 14 NonCon=     1 RMS=4.25D-05 Max=2.41D-03 NDo=     1
 LinEq1:  Iter= 15 NonCon=     1 RMS=4.15D-05 Max=3.30D-03 NDo=     1
 LinEq1:  Iter= 16 NonCon=     1 RMS=4.03D-05 Max=2.15D-03 NDo=     1
 LinEq1:  Iter= 17 NonCon=     1 RMS=4.32D-05 Max=1.92D-03 NDo=     1
 LinEq1:  Iter= 18 NonCon=     1 RMS=4.27D-05 Max=2.38D-03 NDo=     1
 LinEq1:  Iter= 19 NonCon=     1 RMS=4.04D-05 Max=1.89D-03 NDo=     1
 LinEq1:  Iter= 20 NonCon=     1 RMS=3.30D-05 Max=1.95D-03 NDo=     1
 LinEq1:  Iter= 21 NonCon=     1 RMS=4.29D-05 Max=2.83D-03 NDo=     1
 LinEq1:  Iter= 22 NonCon=     1 RMS=4.45D-05 Max=2.30D-03 NDo=     1
 LinEq1:  Iter= 23 NonCon=     1 RMS=4.85D-05 Max=2.81D-03 NDo=     1
 LinEq1:  Iter= 24 NonCon=     1 RMS=4.37D-05 Max=2.62D-03 NDo=     1
 LinEq1:  Iter= 25 NonCon=     1 RMS=4.61D-05 Max=2.64D-03 NDo=     1
 LinEq1:  Iter= 26 NonCon=     1 RMS=2.83D-05 Max=1.53D-03 NDo=     1
 LinEq1:  Iter= 27 NonCon=     1 RMS=2.30D-05 Max=1.16D-03 NDo=     1
 LinEq1:  Iter= 28 NonCon=     1 RMS=1.51D-05 Max=9.97D-04 NDo=     1
 LinEq1:  Iter= 29 NonCon=     1 RMS=1.12D-05 Max=6.61D-04 NDo=     1
 LinEq1:  Iter= 30 NonCon=     1 RMS=9.70D-06 Max=6.83D-04 NDo=     1
 LinEq1:  Iter= 31 NonCon=     1 RMS=5.50D-06 Max=3.56D-04 NDo=     1
 LinEq1:  Iter= 32 NonCon=     1 RMS=3.51D-06 Max=1.86D-04 NDo=     1
 LinEq1:  Iter= 33 NonCon=     1 RMS=2.71D-06 Max=1.84D-04 NDo=     1
 LinEq1:  Iter= 34 NonCon=     1 RMS=1.84D-06 Max=1.17D-04 NDo=     1
 LinEq1:  Iter= 35 NonCon=     1 RMS=1.19D-06 Max=8.03D-05 NDo=     1
 LinEq1:  Iter= 36 NonCon=     1 RMS=9.24D-07 Max=4.62D-05 NDo=     1
 LinEq1:  Iter= 37 NonCon=     1 RMS=4.69D-07 Max=2.20D-05 NDo=     1
 LinEq1:  Iter= 38 NonCon=     1 RMS=3.48D-07 Max=1.68D-05 NDo=     1
 LinEq1:  Iter= 39 NonCon=     1 RMS=2.64D-07 Max=2.13D-05 NDo=     1
 LinEq1:  Iter= 40 NonCon=     1 RMS=1.73D-07 Max=1.15D-05 NDo=     1
 LinEq1:  Iter= 41 NonCon=     1 RMS=1.32D-07 Max=7.95D-06 NDo=     1
 LinEq1:  Iter= 42 NonCon=     1 RMS=8.24D-08 Max=4.90D-06 NDo=     1
 LinEq1:  Iter= 43 NonCon=     1 RMS=5.86D-08 Max=3.39D-06 NDo=     1
 LinEq1:  Iter= 44 NonCon=     1 RMS=4.37D-08 Max=3.16D-06 NDo=     1
 LinEq1:  Iter= 45 NonCon=     1 RMS=2.29D-08 Max=1.44D-06 NDo=     1
 LinEq1:  Iter= 46 NonCon=     1 RMS=1.44D-08 Max=6.67D-07 NDo=     1
 LinEq1:  Iter= 47 NonCon=     1 RMS=1.21D-08 Max=5.37D-07 NDo=     1
 LinEq1:  Iter= 48 NonCon=     1 RMS=6.44D-09 Max=4.27D-07 NDo=     1
 LinEq1:  Iter= 49 NonCon=     1 RMS=4.64D-09 Max=1.90D-07 NDo=     1
 LinEq1:  Iter= 50 NonCon=     1 RMS=2.88D-09 Max=1.54D-07 NDo=     1
 LinEq1:  Iter= 51 NonCon=     1 RMS=1.46D-09 Max=4.98D-08 NDo=     1
 LinEq1:  Iter= 52 NonCon=     1 RMS=1.24D-09 Max=5.01D-08 NDo=     1
 LinEq1:  Iter= 53 NonCon=     1 RMS=7.14D-10 Max=2.46D-08 NDo=     1
 LinEq1:  Iter= 54 NonCon=     1 RMS=5.03D-10 Max=2.19D-08 NDo=     1
 LinEq1:  Iter= 55 NonCon=     1 RMS=3.05D-10 Max=1.22D-08 NDo=     1
 LinEq1:  Iter= 56 NonCon=     0 RMS=1.13D-10 Max=4.94D-09 NDo=     1
 Linear equations converged to 5.342D-10 5.342D-09 after    56 iterations.
 SCF Done:  E(UB3LYP) =  -3796.06881599     a.u. after    3 cycles
            Convg  =    0.5069D-08                   117 Fock formations.
              S**2 =  2.8895                  -V/T =  2.0050
 <Sx>= 0.0000 <Sy>= 0.0000 <Sz>= 0.5000 <S**2>= 2.8895 S= 1.2719
 <L.S>=  0.00000000000    
 Annihilation of the first spin contaminant:
 S**2 before annihilation     2.8895,   after     6.1258

 **********************************************************************

            Population analysis using the SCF Density.

 **********************************************************************

 Orbital symmetries:
 Alpha Orbitals:
       Occupied  (A') (A') (A') (A') (A') (A') (A") (A") (A') (A')
                 (A') (A') (A') (A') (A') (A') (A') (A') (A') (A')
                 (A') (A') (A') (A') (A') (A') (A') (A') (A') (A')
                 (A') (A') (A') (A') (A') (A') (A') (A') (A') (A')
                 (A') (A') (A') (A') (A") (A") (A') (A') (A') (A')
                 (A') (A') (A') (A') (A') (A') (A') (A') (A') (A')
                 (A') (A') (A') (A') (A') (A') (A') (A') (A') (A')
                 (A') (A') (A') (A') (A') (A') (A') (A') (A') (A')
                 (A') (A') (A') (A') (A') (A') (A') (A") (A") (A")
                 (A') (A') (A') (A') (A') (A') (A') (A") (A') (A")
                 (A') (A") (A") (A") (A") (A') (A') (A") (A") (A')
                 (A") (A") (A') (A') (A") (A') (A") (A') (A") (A")
                 (A") (A') (A')
       Virtual   (A") (A") (A') (A") (A') (A") (A') (A") (A") (A')
                 (A") (A") (A") (A") (A') (A") (A') (A') (A") (A')
                 (A') (A') (A') (A") (A') (A') (A') (A') (A') (A')
                 (A") (A") (A') (A') (A') (A') (A') (A') (A') (A')
                 (A') (A') (A") (A") (A') (A') (A') (A') (A") (A")
                 (A') (A') (A') (A') (A') (A') (A') (A') (A") (A')
                 (A') (A') (A') (A') (A') (A') (A') (A') (A') (A')
                 (A') (A') (A') (A') (A') (A") (A') (A') (A') (A")
                 (A') (A') (A') (A") (A") (A') (A') (A') (A") (A')
                 (A") (A') (A") (A") (A') (A") (A') (A") (A') (A')
                 (A') (A') (A') (A') (A") (A') (A") (A") (A') (A')
                 (A") (A') (A") (A") (A") (A') (A") (A') (A") (A")
                 (A') (A") (A') (A') (A') (A") (A') (A') (A") (A")
                 (A') (A') (A') (A') (A') (A') (A") (A') (A") (A")
                 (A') (A') (A') (A') (A') (A') (A') (A') (A') (A')
                 (A') (A') (A') (A') (A') (A") (A") (A') (A') (A')
                 (A') (A') (A') (A') (A') (A') (A') (A') (A") (A')
                 (A') (A') (A') (A') (A') (A') (A') (A') (A') (A')
                 (A') (A') (A') (A') (A') (A') (A') (A') (A") (A')
                 (A') (A') (A') (A") (A") (A") (A') (A") (A") (A')
                 (A') (A') (A") (A') (A") (A') (A') (A") (A') (A')
                 (A') (A") (A') (A") (A") (A") (A") (A') (A") (A")
                 (A") (A') (A") (A') (A") (A") (A") (A") (A') (A')
                 (A") (A') (A") (A') (A') (A") (A') (A") (A') (A")
                 (A') (A') (A") (A') (A') (A') (A") (A') (A') (A')
                 (A") (A') (A") (A') (A') (A') (A') (A") (A') (A')
                 (A") (A') (A') (A') (A') (A") (A") (A') (A") (A')
                 (A') (A") (A') (A') (A") (A') (A') (A') (A") (A')
                 (A") (A') (A') (A') (A') (A') (A') (A") (A") (A')
                 (A') (A') (A') (A') (A") (A') (A') (A') (A') (A')
                 (A') (A") (A") (A") (A') (A') (A") (A") (A') (A')
                 (A') (A") (A") (A") (A") (A') (A") (A') (A") (A")
                 (A') (A") (A') (A") (A') (A') (A') (A') (A") (A")
                 (A') (A") (A') (A") (A") (A') (A') (A') (A') (A')
                 (A') (A') (A") (A") (A') (A') (A') (A') (A") (A")
                 (A") (A') (A') (A') (A') (A') (A') (A') (A') (A')
                 (A') (A') (A') (A') (A') (A') (A') (A') (A') (A")
                 (A") (A') (A') (A') (A") (A') (A') (A') (A') (A')
                 (A') (A') (A') (A') (A') (A') (A') (A') (A') (A')
                 (A') (A') (A') (A') (A') (A') (A') (A') (A') (A')
                 (A') (A') (A') (A') (A') (A') (A') (A') (A') (A')
                 (A') (A') (A') (A') (A') (A') (A') (A') (A') (A')
                 (A') (A') (A')
 Beta  Orbitals:
       Occupied  (A') (A') (A') (A') (A') (A") (A') (A') (A") (A')
                 (A') (A') (A') (A') (A') (A') (A') (A') (A') (A')
                 (A') (A') (A') (A') (A') (A') (A') (A') (A') (A')
                 (A') (A') (A') (A') (A') (A') (A') (A') (A') (A')
                 (A') (A') (A') (A") (A') (A') (A') (A") (A') (A')
                 (A') (A') (A') (A') (A') (A') (A') (A') (A') (A')
                 (A') (A') (A') (A') (A') (A') (A') (A') (A') (A')
                 (A') (A') (A') (A') (A') (A') (A') (A') (A') (A')
                 (A') (A') (A') (A') (A') (A') (A') (A") (A") (A")
                 (A') (A') (A') (A') (A') (A') (A') (A") (A') (A")
                 (A') (A") (A") (A') (A") (A") (A') (A") (A') (A")
                 (A") (A") (A") (A') (A') (A") (A') (A") (A") (A')
                 (A') (A")
       Virtual   (A") (A') (A") (A") (A') (A") (A") (A') (A") (A')
                 (A') (A") (A") (A") (A") (A") (A') (A') (A') (A")
                 (A') (A') (A') (A') (A") (A') (A') (A') (A') (A')
                 (A') (A") (A") (A') (A') (A') (A') (A') (A') (A')
                 (A') (A') (A') (A") (A") (A') (A') (A') (A") (A')
                 (A") (A') (A') (A') (A') (A') (A') (A') (A') (A')
                 (A') (A") (A') (A') (A') (A') (A') (A') (A') (A')
                 (A') (A') (A') (A') (A') (A') (A") (A') (A') (A')
                 (A") (A') (A') (A') (A") (A") (A') (A') (A') (A")
                 (A") (A') (A') (A") (A") (A') (A") (A") (A') (A')
                 (A') (A') (A') (A') (A') (A") (A') (A") (A") (A')
                 (A") (A') (A') (A") (A") (A") (A') (A") (A') (A")
                 (A") (A') (A") (A') (A') (A') (A") (A') (A") (A')
                 (A") (A') (A') (A') (A') (A') (A') (A") (A') (A")
                 (A") (A') (A') (A') (A') (A') (A') (A') (A') (A')
                 (A') (A') (A') (A') (A') (A") (A') (A") (A') (A')
                 (A') (A') (A') (A') (A') (A') (A') (A') (A') (A")
                 (A') (A') (A') (A') (A') (A') (A') (A') (A') (A')
                 (A') (A') (A') (A') (A') (A') (A') (A') (A') (A")
                 (A') (A') (A') (A') (A") (A") (A") (A') (A") (A")
                 (A') (A') (A') (A') (A") (A") (A') (A') (A") (A')
                 (A") (A') (A') (A") (A") (A") (A') (A") (A') (A")
                 (A") (A") (A') (A") (A') (A") (A") (A") (A") (A')
                 (A') (A") (A') (A") (A') (A") (A') (A") (A') (A")
                 (A') (A') (A') (A") (A') (A') (A') (A') (A") (A')
                 (A') (A") (A') (A') (A") (A') (A') (A') (A') (A")
                 (A') (A') (A") (A') (A') (A') (A") (A") (A") (A')
                 (A') (A') (A") (A') (A') (A") (A') (A") (A') (A')
                 (A") (A') (A') (A') (A') (A') (A') (A') (A") (A")
                 (A') (A') (A') (A') (A') (A") (A') (A') (A') (A')
                 (A') (A') (A") (A") (A") (A') (A') (A") (A") (A')
                 (A') (A') (A") (A") (A") (A") (A") (A') (A') (A")
                 (A') (A") (A') (A") (A') (A") (A') (A') (A') (A")
                 (A') (A") (A") (A") (A") (A') (A') (A') (A') (A')
                 (A') (A') (A') (A") (A") (A') (A') (A') (A') (A")
                 (A") (A") (A') (A') (A') (A') (A') (A') (A') (A')
                 (A') (A') (A') (A') (A') (A') (A') (A') (A') (A')
                 (A") (A") (A') (A') (A') (A") (A') (A') (A') (A')
                 (A') (A') (A') (A') (A') (A') (A') (A') (A') (A')
                 (A') (A') (A') (A') (A') (A') (A') (A') (A') (A')
                 (A') (A') (A') (A') (A') (A') (A') (A') (A') (A')
                 (A') (A') (A') (A') (A') (A') (A') (A') (A') (A')
                 (A') (A') (A') (A')
 The electronic state is 2-A'.
 Alpha  occ. eigenvalues -- -277.52017-256.04945 -32.83080 -30.03548 -28.48359
 Alpha  occ. eigenvalues --  -28.48046 -28.47933 -25.90151 -25.89863 -25.88433
 Alpha  occ. eigenvalues --  -10.26130 -10.25715 -10.25266 -10.25021 -10.24895
 Alpha  occ. eigenvalues --  -10.24883 -10.23912 -10.23597 -10.23559 -10.23485
 Alpha  occ. eigenvalues --  -10.23415 -10.23403 -10.23329 -10.23232 -10.23142
 Alpha  occ. eigenvalues --  -10.23034 -10.22886 -10.22432 -10.21428 -10.21368
 Alpha  occ. eigenvalues --  -10.21314 -10.21245 -10.21192 -10.21135 -10.21119
 Alpha  occ. eigenvalues --  -10.21082 -10.20920 -10.20824 -10.20806 -10.20738
 Alpha  occ. eigenvalues --   -3.66450  -3.47881  -2.34928  -2.34431  -2.33329
 Alpha  occ. eigenvalues --   -2.27078  -2.26297  -2.22960  -0.87688  -0.87432
 Alpha  occ. eigenvalues --   -0.87225  -0.80044  -0.79470  -0.79080  -0.78554
 Alpha  occ. eigenvalues --   -0.78022  -0.77514  -0.75751  -0.75301  -0.75015
 Alpha  occ. eigenvalues --   -0.71153  -0.70049  -0.69409  -0.66001  -0.65797
 Alpha  occ. eigenvalues --   -0.64280  -0.62457  -0.62236  -0.62027  -0.59277
 Alpha  occ. eigenvalues --   -0.58054  -0.57365  -0.54614  -0.54376  -0.52376
 Alpha  occ. eigenvalues --   -0.51195  -0.49865  -0.49544  -0.47585  -0.47128
 Alpha  occ. eigenvalues --   -0.47072  -0.45814  -0.45570  -0.45138  -0.44037
 Alpha  occ. eigenvalues --   -0.43928  -0.43620  -0.39966  -0.39689  -0.39340
 Alpha  occ. eigenvalues --   -0.38199  -0.38023  -0.37890  -0.37765  -0.37178
 Alpha  occ. eigenvalues --   -0.37077  -0.35955  -0.35462  -0.34358  -0.33573
 Alpha  occ. eigenvalues --   -0.33441  -0.33082  -0.31119  -0.30384  -0.29834
 Alpha  occ. eigenvalues --   -0.29820  -0.28439  -0.27622  -0.27101  -0.26922
 Alpha  occ. eigenvalues --   -0.26574  -0.26053  -0.25866  -0.25165  -0.24856
 Alpha  occ. eigenvalues --   -0.22294  -0.22278  -0.22019  -0.21741  -0.19570
 Alpha  occ. eigenvalues --   -0.19271  -0.18672  -0.15461
 Alpha virt. eigenvalues --   -0.10113  -0.09792  -0.07664  -0.06116  -0.03832
 Alpha virt. eigenvalues --   -0.03827  -0.03222  -0.02199  -0.02091  -0.01854
 Alpha virt. eigenvalues --   -0.00728   0.00853   0.02549   0.03665   0.03715
 Alpha virt. eigenvalues --    0.03778   0.05263   0.05615   0.06652   0.07074
 Alpha virt. eigenvalues --    0.07695   0.08380   0.08640   0.09143   0.09188
 Alpha virt. eigenvalues --    0.09587   0.10134   0.10437   0.10660   0.10854
 Alpha virt. eigenvalues --    0.11224   0.11665   0.12733   0.13920   0.14032
 Alpha virt. eigenvalues --    0.15261   0.15524   0.16569   0.17018   0.17185
 Alpha virt. eigenvalues --    0.17323   0.17781   0.18360   0.18500   0.18686
 Alpha virt. eigenvalues --    0.19813   0.20733   0.20915   0.20921   0.22077
 Alpha virt. eigenvalues --    0.24356   0.26305   0.26739   0.26856   0.27855
 Alpha virt. eigenvalues --    0.28287   0.28659   0.30276   0.30654   0.30784
 Alpha virt. eigenvalues --    0.30960   0.34073   0.35090   0.35473   0.35602
 Alpha virt. eigenvalues --    0.36282   0.38258   0.42262   0.43326   0.44172
 Alpha virt. eigenvalues --    0.46926   0.48275   0.48472   0.49167   0.49732
 Alpha virt. eigenvalues --    0.50167   0.50292   0.51110   0.51460   0.51595
 Alpha virt. eigenvalues --    0.51921   0.52079   0.52115   0.52358   0.53297
 Alpha virt. eigenvalues --    0.53401   0.54596   0.55174   0.55499   0.55678
 Alpha virt. eigenvalues --    0.55700   0.56500   0.56924   0.57852   0.57923
 Alpha virt. eigenvalues --    0.58779   0.58791   0.58902   0.59003   0.59405
 Alpha virt. eigenvalues --    0.59494   0.59718   0.59794   0.59877   0.61161
 Alpha virt. eigenvalues --    0.61353   0.61491   0.62558   0.62871   0.64062
 Alpha virt. eigenvalues --    0.64115   0.65231   0.65379   0.65524   0.65850
 Alpha virt. eigenvalues --    0.66245   0.67060   0.67891   0.68263   0.68850
 Alpha virt. eigenvalues --    0.68921   0.69291   0.70071   0.71219   0.72444
 Alpha virt. eigenvalues --    0.72704   0.73358   0.74418   0.74573   0.74731
[...]
    37  C(13)              0.00015       0.17103       0.06103       0.05705
    38  C(13)             -0.00006      -0.06694      -0.02389      -0.02233
    39  C(13)              0.00378       4.25387       1.51789       1.41894
    40  C(13)             -0.00479      -5.38476      -1.92142      -1.79616
    41  H(1)               0.00015       0.65005       0.23195       0.21683
    42  H(1)              -0.00004      -0.19433      -0.06934      -0.06482
    43  H(1)               0.00011       0.51322       0.18313       0.17119
    44  H(1)              -0.00010      -0.46549      -0.16610      -0.15527
 --------------------------------------------------------
       Center         ----  Spin Dipole Couplings  ----
                      3XX-RR        3YY-RR        3ZZ-RR
 --------------------------------------------------------
     1   Atom        0.001333      0.005085     -0.006418
     2   Atom       -0.007967      0.020184     -0.012217
     3   Atom        0.004763     -0.003333     -0.001430
     4   Atom        0.001179      0.003521     -0.004700
     5   Atom        0.001446      0.001608     -0.003054
     6   Atom        0.000402      0.004734     -0.005136
     7   Atom        0.090405     -0.020117     -0.070288
     8   Atom        0.035433     -0.005893     -0.029540
     9   Atom       -0.034149      0.059412     -0.025263
    10   Atom       -0.009292      0.031864     -0.022571
    11   Atom        0.020888      0.000738     -0.021626
    12   Atom       -0.013487      0.008302      0.005186
    13   Atom       -0.004534     -0.038084      0.042618
    14   Atom        0.016419      0.015447     -0.031866
    15   Atom       -0.000958      0.002221     -0.001264
    16   Atom        0.000827     -0.001256      0.000428
    17   Atom        0.000192     -0.000205      0.000013
    18   Atom       -0.000472      0.000715     -0.000244
    19   Atom        0.203186      0.665303     -0.868489
    20   Atom        0.000402      0.000671     -0.001073
    21   Atom        0.003603     -0.001223     -0.002380
    22   Atom       -0.001202      0.002205     -0.001003
    23   Atom       -0.002042      0.004143     -0.002100
    24   Atom       -0.001373     -0.000579      0.001952
    25   Atom       -0.005654     -0.001275      0.006930
    26   Atom       -0.003663     -0.000112      0.003774
    27   Atom       -0.013933      0.015759     -0.001825
    28   Atom        0.004726      0.004261     -0.008987
    29   Atom       -0.003095     -0.003937      0.007032
    30   Atom       -0.464140     -1.817200      2.281340
    31   Atom       -0.036996     -0.010871      0.047867
    32   Atom        0.065370     -0.051170     -0.014200
    33   Atom       -0.005758      0.007872     -0.002113
    34   Atom        0.031570     -0.032741      0.001172
    35   Atom       -0.001935      0.000909      0.001026
    36   Atom        0.001947      0.001997     -0.003944
    37   Atom       -0.000680     -0.001155      0.001836
    38   Atom        0.002805      0.002234     -0.005039
    39   Atom        0.001396     -0.002686      0.001290
    40   Atom        0.003826      0.002446     -0.006271
    41   Atom        0.001054     -0.000856     -0.000198
    42   Atom        0.000327     -0.000207     -0.000119
    43   Atom        0.000042      0.000110     -0.000152
    44   Atom        0.000620     -0.000114     -0.000506
 --------------------------------------------------------
                        XY            XZ            YZ
 --------------------------------------------------------
     1   Atom        0.005901      0.000000      0.000000
     2   Atom       -0.004554      0.000000      0.000000
     3   Atom       -0.004627      0.000000      0.000000
     4   Atom       -0.002233      0.000000      0.000000
     5   Atom       -0.000612      0.000000      0.000000
     6   Atom       -0.000893      0.000000      0.000000
     7   Atom        0.050413      0.000000      0.000000
     8   Atom       -0.011734      0.000000      0.000000
     9   Atom        0.049114      0.000000      0.000000
    10   Atom       -0.021545      0.000000      0.000000
    11   Atom        0.010347      0.000000      0.000000
    12   Atom        0.026210      0.000000      0.000000
    13   Atom       -0.041768      0.000000      0.000000
    14   Atom       -0.065683      0.000000      0.000000
    15   Atom        0.000784      0.000000      0.000000
    16   Atom       -0.000320      0.000000      0.000000
    17   Atom       -0.000514      0.000000      0.000000
    18   Atom       -0.000452      0.000000      0.000000
    19   Atom        1.476767      0.000000      0.000000
    20   Atom       -0.001850      0.000000      0.000000
    21   Atom       -0.002171      0.000000      0.000000
    22   Atom       -0.001134      0.000000      0.000000
    23   Atom        0.000280      0.000000      0.000000
    24   Atom       -0.002361      0.000000      0.000000
    25   Atom       -0.001160      0.000000      0.000000
    26   Atom       -0.001470      0.000000      0.000000
    27   Atom       -0.003916      0.000000      0.000000
    28   Atom       -0.015359      0.000000      0.000000
    29   Atom       -0.004288      0.000000      0.000000
    30   Atom        0.911332      0.000000      0.000000
    31   Atom       -0.039584      0.000000      0.000000
    32   Atom        0.032007      0.000000      0.000000
    33   Atom        0.015198      0.000000      0.000000
    34   Atom       -0.003727      0.000000      0.000000
    35   Atom       -0.000988      0.000000      0.000000
    36   Atom       -0.000233      0.000000      0.000000
    37   Atom        0.000101      0.000000      0.000000
    38   Atom        0.000294      0.000000      0.000000
    39   Atom        0.000495      0.000000      0.000000
    40   Atom       -0.000164      0.000000      0.000000
    41   Atom        0.000199      0.000000      0.000000
    42   Atom        0.000111      0.000000      0.000000
    43   Atom       -0.000002      0.000000      0.000000
    44   Atom       -0.000754      0.000000      0.000000
 --------------------------------------------------------


 ---------------------------------------------------------------------------------
              Anisotropic Spin Dipole Couplings in Principal Axis System
 ---------------------------------------------------------------------------------

       Atom             a.u.   MegaHertz   Gauss  10(-4) cm-1        Axes

              Baa    -0.0064    -0.861    -0.307    -0.287  0.0000  0.0000  1.0000
     1 C(13)  Bbb    -0.0030    -0.400    -0.143    -0.134  0.8071 -0.5904 -0.0000
              Bcc     0.0094     1.262     0.450     0.421  0.5904  0.8071  0.0000
 
              Baa    -0.0122    -1.639    -0.585    -0.547  0.0000  0.0000  1.0000
     2 C(13)  Bbb    -0.0087    -1.166    -0.416    -0.389  0.9878  0.1558  0.0000
              Bcc     0.0209     2.805     1.001     0.936 -0.1558  0.9878  0.0000
 
              Baa    -0.0054    -0.729    -0.260    -0.243  0.4133  0.9106  0.0000
     3 C(13)  Bbb    -0.0014    -0.192    -0.068    -0.064  0.0000  0.0000  1.0000
              Bcc     0.0069     0.921     0.329     0.307  0.9106 -0.4133 -0.0000
 
              Baa    -0.0047    -0.631    -0.225    -0.210  0.0000  0.0000  1.0000
     4 C(13)  Bbb    -0.0002    -0.023    -0.008    -0.008  0.8557  0.5175  0.0000
              Bcc     0.0049     0.654     0.233     0.218 -0.5175  0.8557  0.0000
 
              Baa    -0.0031    -0.410    -0.146    -0.137  0.0000  0.0000  1.0000
     5 C(13)  Bbb     0.0009     0.122     0.044     0.041  0.7523  0.6589  0.0000
              Bcc     0.0021     0.288     0.103     0.096 -0.6589  0.7523  0.0000
 
              Baa    -0.0051    -0.689    -0.246    -0.230  0.0000  0.0000  1.0000
     6 C(13)  Bbb     0.0002     0.030     0.011     0.010  0.9809  0.1943  0.0000
              Bcc     0.0049     0.659     0.235     0.220 -0.1943  0.9809  0.0000
 
              Baa    -0.0703    -9.432    -3.366    -3.146  0.0000  0.0000  1.0000
     7 C(13)  Bbb    -0.0397    -5.322    -1.899    -1.775 -0.3614  0.9324 -0.0000
              Bcc     0.1099    14.754     5.264     4.921  0.9324  0.3614  0.0000
 
              Baa    -0.0295    -3.964    -1.414    -1.322  0.0000  0.0000  1.0000
     8 C(13)  Bbb    -0.0090    -1.207    -0.431    -0.402  0.2554  0.9668  0.0000
              Bcc     0.0385     5.171     1.845     1.725  0.9668 -0.2554 -0.0000
 
              Baa    -0.0552    -7.407    -2.643    -2.471  0.9192 -0.3939 -0.0000
     9 C(13)  Bbb    -0.0253    -3.390    -1.210    -1.131  0.0000  0.0000  1.0000
              Bcc     0.0805    10.797     3.853     3.601  0.3939  0.9192  0.0000
 
              Baa    -0.0226    -3.029    -1.081    -1.010  0.0000  0.0000  1.0000
    10 C(13)  Bbb    -0.0185    -2.484    -0.886    -0.828  0.9194  0.3933  0.0000
              Bcc     0.0411     5.512     1.967     1.839 -0.3933  0.9194  0.0000
 
              Baa    -0.0216    -2.902    -1.036    -0.968  0.0000  0.0000  1.0000
    11 C(13)  Bbb    -0.0036    -0.487    -0.174    -0.162 -0.3888  0.9213 -0.0000
              Bcc     0.0253     3.389     1.209     1.130  0.9213  0.3888  0.0000
 
              Baa    -0.0310    -4.157    -1.483    -1.387  0.8318 -0.5551 -0.0000
    12 C(13)  Bbb     0.0052     0.696     0.248     0.232  0.0000  0.0000  1.0000
              Bcc     0.0258     3.461     1.235     1.154  0.5551  0.8318  0.0000
 
              Baa    -0.0663    -8.900    -3.176    -2.969  0.5601  0.8285  0.0000
    13 C(13)  Bbb     0.0237     3.181     1.135     1.061  0.8285 -0.5601 -0.0000
              Bcc     0.0426     5.719     2.041     1.908  0.0000  0.0000  1.0000
 
              Baa    -0.0498    -6.676    -2.382    -2.227  0.7045  0.7097  0.0000
    14 C(13)  Bbb    -0.0319    -4.276    -1.526    -1.426  0.0000  0.0000  1.0000
              Bcc     0.0816    10.952     3.908     3.653  0.7097 -0.7045 -0.0000
 
              Baa    -0.0013    -0.674    -0.241    -0.225  0.0000  0.0000  1.0000
    15 H(1)   Bbb    -0.0011    -0.608    -0.217    -0.203  0.9739 -0.2270 -0.0000
              Bcc     0.0024     1.283     0.458     0.428  0.2270  0.9739  0.0000
 
              Baa    -0.0013    -0.696    -0.248    -0.232  0.1485  0.9889  0.0000
    16 H(1)   Bbb     0.0004     0.229     0.082     0.076  0.0000  0.0000  1.0000
              Bcc     0.0009     0.467     0.167     0.156  0.9889 -0.1485 -0.0000
 
              Baa    -0.0006    -0.297    -0.106    -0.099  0.5657  0.8246  0.0000
    17 H(1)   Bbb     0.0000     0.007     0.002     0.002  0.0000  0.0000  1.0000
              Bcc     0.0005     0.290     0.104     0.097  0.8246 -0.5657 -0.0000
 
              Baa    -0.0006    -0.333    -0.119    -0.111  0.9474  0.3199  0.0000
    18 H(1)   Bbb    -0.0002    -0.130    -0.046    -0.043  0.0000  0.0000  1.0000
              Bcc     0.0009     0.463     0.165     0.155 -0.3199  0.9474  0.0000
 
              Baa    -1.0605  -133.918   -47.785   -44.670  0.7598 -0.6502 -0.0000
    19 Co(59) Bbb    -0.8685  -109.672   -39.134   -36.583  0.0000  0.0000  1.0000
              Bcc     1.9290   243.590    86.919    81.253  0.6502  0.7598  0.0000
 
              Baa    -0.0013    -0.703    -0.251    -0.235  0.7323  0.6810  0.0000
    20 H(1)   Bbb    -0.0011    -0.573    -0.204    -0.191  0.0000  0.0000  1.0000
              Bcc     0.0024     1.276     0.455     0.426 -0.6810  0.7323  0.0000
 
              Baa    -0.0024    -1.270    -0.453    -0.424  0.0000  0.0000  1.0000
    21 H(1)   Bbb    -0.0021    -1.097    -0.391    -0.366  0.3582  0.9337  0.0000
              Bcc     0.0044     2.367     0.845     0.790  0.9337 -0.3582 -0.0000
 
              Baa    -0.0015    -0.824    -0.294    -0.275  0.9572  0.2895  0.0000
    22 H(1)   Bbb    -0.0010    -0.535    -0.191    -0.179  0.0000  0.0000  1.0000
              Bcc     0.0025     1.360     0.485     0.454 -0.2895  0.9572  0.0000
 
              Baa    -0.0021    -1.121    -0.400    -0.374  0.0000  0.0000  1.0000
    23 H(1)   Bbb    -0.0021    -1.096    -0.391    -0.366  0.9990 -0.0452 -0.0000
              Bcc     0.0042     2.217     0.791     0.740  0.0452  0.9990  0.0000
 
              Baa    -0.0034    -0.452    -0.161    -0.151  0.7635  0.6458  0.0000
    24 C(13)  Bbb     0.0014     0.190     0.068     0.063 -0.6458  0.7635 -0.0000
              Bcc     0.0020     0.262     0.093     0.087  0.0000  0.0000  1.0000
 
              Baa    -0.0059    -0.797    -0.285    -0.266  0.9705  0.2412  0.0000
    25 C(13)  Bbb    -0.0010    -0.132    -0.047    -0.044 -0.2412  0.9705 -0.0000
              Bcc     0.0069     0.930     0.332     0.310  0.0000  0.0000  1.0000
 
              Baa    -0.0042    -0.563    -0.201    -0.188  0.9408  0.3389  0.0000
    26 C(13)  Bbb     0.0004     0.056     0.020     0.019 -0.3389  0.9408 -0.0000
              Bcc     0.0038     0.506     0.181     0.169  0.0000  0.0000  1.0000
 
              Baa    -0.0144    -1.938    -0.691    -0.646  0.9917  0.1286  0.0000
    27 C(13)  Bbb    -0.0018    -0.245    -0.087    -0.082  0.0000  0.0000  1.0000
              Bcc     0.0163     2.183     0.779     0.728 -0.1286  0.9917  0.0000
 
              Baa    -0.0109    -1.458    -0.520    -0.486  0.7017  0.7124  0.0000
    28 C(13)  Bbb    -0.0090    -1.206    -0.430    -0.402  0.0000  0.0000  1.0000
              Bcc     0.0199     2.664     0.951     0.889  0.7124 -0.7017 -0.0000
 
              Baa    -0.0078    -1.050    -0.375    -0.350  0.6717  0.7409  0.0000
    29 C(13)  Bbb     0.0008     0.106     0.038     0.035  0.7409 -0.6717 -0.0000
              Bcc     0.0070     0.944     0.337     0.315  0.0000  0.0000  1.0000
 
              Baa    -2.2757   -39.398   -14.058   -13.142 -0.4494  0.8933  0.0000
    30 Fe(57) Bbb    -0.0057    -0.098    -0.035    -0.033  0.8933  0.4494  0.0000
              Bcc     2.2813    39.497    14.093    13.175  0.0000  0.0000  1.0000
 
              Baa    -0.0656    -8.805    -3.142    -2.937  0.8104  0.5859  0.0000
    31 C(13)  Bbb     0.0178     2.382     0.850     0.795 -0.5859  0.8104 -0.0000
              Bcc     0.0479     6.423     2.292     2.143  0.0000  0.0000  1.0000
 
              Baa    -0.0594    -7.969    -2.843    -2.658 -0.2485  0.9686 -0.0000
    32 C(13)  Bbb    -0.0142    -1.905    -0.680    -0.636  0.0000  0.0000  1.0000
              Bcc     0.0736     9.874     3.523     3.294  0.9686  0.2485  0.0000
 
              Baa    -0.0156    -2.093    -0.747    -0.698  0.8394 -0.5435 -0.0000
    33 C(13)  Bbb    -0.0021    -0.284    -0.101    -0.095  0.0000  0.0000  1.0000
              Bcc     0.0177     2.377     0.848     0.793  0.5435  0.8394  0.0000
 
              Baa    -0.0330    -4.422    -1.578    -1.475  0.0577  0.9983  0.0000
    34 C(13)  Bbb     0.0012     0.157     0.056     0.052  0.0000  0.0000  1.0000
              Bcc     0.0318     4.265     1.522     1.423  0.9983 -0.0577 -0.0000
 
              Baa    -0.0022    -0.301    -0.108    -0.100  0.9542  0.2990  0.0000
    35 C(13)  Bbb     0.0010     0.138     0.049     0.046  0.0000  0.0000  1.0000
              Bcc     0.0012     0.164     0.058     0.055 -0.2990  0.9542 -0.0000
 
              Baa    -0.0039    -0.529    -0.189    -0.177  0.0000  0.0000  1.0000
    36 C(13)  Bbb     0.0017     0.233     0.083     0.078  0.7437  0.6685  0.0000
              Bcc     0.0022     0.296     0.106     0.099 -0.6685  0.7437  0.0000
 
              Baa    -0.0012    -0.158    -0.056    -0.053 -0.1991  0.9800  0.0000
    37 C(13)  Bbb    -0.0007    -0.089    -0.032    -0.030  0.9800  0.1991  0.0000
              Bcc     0.0018     0.246     0.088     0.082  0.0000  0.0000  1.0000
 
              Baa    -0.0050    -0.676    -0.241    -0.226  0.0000  0.0000  1.0000
    38 C(13)  Bbb     0.0021     0.283     0.101     0.094 -0.3896  0.9210 -0.0000
              Bcc     0.0029     0.393     0.140     0.131  0.9210  0.3896  0.0000
 
              Baa    -0.0027    -0.368    -0.131    -0.123 -0.1186  0.9929  0.0000
    39 C(13)  Bbb     0.0013     0.173     0.062     0.058  0.0000  0.0000  1.0000
              Bcc     0.0015     0.195     0.070     0.065  0.9929  0.1186  0.0000
 
              Baa    -0.0063    -0.842    -0.300    -0.281  0.0000  0.0000  1.0000
    40 C(13)  Bbb     0.0024     0.326     0.116     0.109  0.1167  0.9932  0.0000
              Bcc     0.0038     0.516     0.184     0.172  0.9932 -0.1167 -0.0000
 
              Baa    -0.0009    -0.468    -0.167    -0.156 -0.1025  0.9947 -0.0000
    41 H(1)   Bbb    -0.0002    -0.106    -0.038    -0.035  0.0000  0.0000  1.0000
              Bcc     0.0011     0.573     0.204     0.191  0.9947  0.1025  0.0000
 
              Baa    -0.0002    -0.122    -0.044    -0.041 -0.1952  0.9808 -0.0000
    42 H(1)   Bbb    -0.0001    -0.064    -0.023    -0.021  0.0000  0.0000  1.0000
              Bcc     0.0003     0.186     0.066     0.062  0.9808  0.1952  0.0000
 
              Baa    -0.0002    -0.081    -0.029    -0.027  0.0000  0.0000  1.0000
    43 H(1)   Bbb     0.0000     0.022     0.008     0.007  0.9996  0.0291  0.0000
              Bcc     0.0001     0.059     0.021     0.020 -0.0291  0.9996  0.0000
 
              Baa    -0.0006    -0.313    -0.112    -0.104  0.5305  0.8477  0.0000
    44 H(1)   Bbb    -0.0005    -0.270    -0.096    -0.090  0.0000  0.0000  1.0000
              Bcc     0.0011     0.583     0.208     0.194  0.8477 -0.5305 -0.0000
 

 ---------------------------------------------------------------------------------

 Unable to Open any file for archive entry.
 1\1\GINC-C31A-S18\FOpt\UB3LYP\6-31G(d)\C30H12Co1Fe1(2)\ADRIAN.GONZALEZ
 S\23-Jan-2023\0\\#n B3LYP/6-31G(d) Opt scf=xqc\\gy2_CoFe_C\\0,2\C,6.41
 00576253,-8.1427423588,0.\C,5.6157392783,-6.987833867,0.\C,4.193175899
 6,-7.1080367508,0.\C,3.5893460159,-8.3729076206,0.\C,4.3967577405,-9.5
 083817443,0.\C,5.7956075008,-9.3930537557,0.\C,6.0328382396,-5.6091424
 974,0.\C,3.535219073,-5.8364526407,0.\C,6.967516714,-4.6973085206,0.\C
 ,2.8195470577,-4.7916318812,0.\C,8.1552426217,-3.9877893377,0.\C,1.984
 9042665,-3.7132006235,0.\C,8.5620980639,-2.7700814557,0.\C,1.433969924
 2,-2.6162749767,0.\H,7.4923066135,-8.0546248306,0.\H,2.5071808276,-8.4
 590672192,0.\H,3.9385902657,-10.4933155642,0.\H,6.4072980416,-10.29103
 3176,0.\Co,4.7246781159,-4.2683620838,0.\H,12.0976893084,0.3104679147,
 0.\H,11.3084891723,-2.0489095964,0.\H,10.4735427473,2.1776276085,0.\H,
 8.0274660365,1.7288897276,0.\C,11.0328283797,0.0955522165,0.\C,10.1116
 894653,1.1530593912,0.\C,8.7382606076,0.9079652156,0.\C,8.2748111897,-
 0.4136696345,0.\C,9.2209990639,-1.4926350625,0.\C,10.5970592487,-1.228
 5958924,0.\Fe,6.5781687081,-2.7147210043,0.\C,6.9075276105,-0.89689291
 4,0.\C,5.6023618189,-1.0388558608,0.\C,4.3122404029,-0.551289479,0.\C,
 3.1115937615,-0.304536171,0.\C,1.7032844336,-0.1632940306,0.\C,1.09560
 70733,1.108524783,0.\C,-0.2870331168,1.2448378123,0.\C,-1.1082631825,0
 .1095867535,0.\C,-0.541026227,-1.1583145605,0.\C,0.8585099987,-1.32358
 19497,0.\H,1.7356582245,1.9851905377,0.\H,-0.7305208901,2.2365984988,0
 .\H,-2.1890892733,0.2173719422,0.\H,-1.169465997,-2.0435230514,0.\\Ver
 sion=ES64L-G16RevC.02\State=2-A'\HF=-3796.3514608\S2=2.055942\S2-1=0.\
 S2A=1.950556\RMSD=4.320e-09\RMSF=1.827e-05\Dipole=0.1153893,-0.100053,
 0.\Quadrupole=10.0934992,11.6372023,-21.7307015,0.9247706,0.,0.\PG=CS 
 [SG(C30H12Co1Fe1)]\\@
 The archive entry for this job was punched.


 THE GREAT THING ABOUT BEING IMPERFECT IS THE JOY IT BRINGS OTHERS.
   -- SIGN OUTSIDE LAKE AGASSIZ JR. HIGH SCHOOL, FARGO, N.D.
 Job cpu time:       1 days 10 hours 39 minutes 56.7 seconds.
 Elapsed time:       0 days  2 hours 17 minutes  1.9 seconds.
 File lengths (MBytes):  RWF=    425 Int=      0 D2E=      0 Chk=     30 Scr=      1
 Normal termination of Gaussian 16 at Mon Jan 23 23:29:37 2023.
