 Entering Gaussian System, Link 0=g16
 Initial command:
 /apps/gaussian/16-c02/avx2/g16/l1.exe "/blue/mingjieliu/adrian.gonzalezs/graphyne/gy2/2metal/gy2_CoCr_C/Gau-26625.inp" -scrdir="/blue/mingjieliu/adrian.gonzalezs/graphyne/gy2/2metal/gy2_CoCr_C/"
 Entering Link 1 = /apps/gaussian/16-c02/avx2/g16/l1.exe PID=     26627.
  
 Copyright (c) 1988-2021, Gaussian, Inc.  All Rights Reserved.
  
 This is part of the Gaussian(R) 16 program.  It is based on
 the Gaussian(R) 09 system (copyright 2009, Gaussian, Inc.),
 the Gaussian(R) 03 system (copyright 2003, Gaussian, Inc.),
 the Gaussian(R) 98 system (copyright 1998, Gaussian, Inc.),
 the Gaussian(R) 94 system (copyright 1995, Gaussian, Inc.),
 the Gaussian 92(TM) system (copyright 1992, Gaussian, Inc.),
 the Gaussian 90(TM) system (copyright 1990, Gaussian, Inc.),
 the Gaussian 88(TM) system (copyright 1988, Gaussian, Inc.),
 the Gaussian 86(TM) system (copyright 1986, Carnegie Mellon
 University), and the Gaussian 82(TM) system (copyright 1983,
 Carnegie Mellon University). Gaussian is a federally registered
 trademark of Gaussian, Inc.
  
 This software contains proprietary and confidential information,
 including trade secrets, belonging to Gaussian, Inc.
  
 This software is provided under written license and may be
 used, copied, transmitted, or stored only in accord with that
 written license.
  
 The following legend is applicable only to US Government
 contracts under FAR:
  
                    RESTRICTED RIGHTS LEGEND
  
 Use, reproduction and disclosure by the US Government is
 subject to restrictions as set forth in subparagraphs (a)
 and (c) of the Commercial Computer Software - Restricted
 Rights clause in FAR 52.227-19.
  
 Gaussian, Inc.
 340 Quinnipiac St., Bldg. 40, Wallingford CT 06492
  
  
 ---------------------------------------------------------------
 Warning -- This program may not be used in any manner that
 competes with the business of Gaussian, Inc. or will provide
 assistance to any competitor of Gaussian, Inc.  The licensee
 of this program is prohibited from giving any competitor of
 Gaussian, Inc. access to this program.  By using this program,
 the user acknowledges that Gaussian, Inc. is engaged in the
 business of creating and licensing software in the field of
 computational chemistry and represents and warrants to the
 licensee that it is not a competitor of Gaussian, Inc. and that
 it will not use this program in any manner prohibited above.
 ---------------------------------------------------------------
  

 Cite this work as:
 Gaussian 16, Revision C.02,
 M. J. Frisch, G. W. Trucks, H. B. Schlegel, G. E. Scuseria, 
 M. A. Robb, J. R. Cheeseman, G. Scalmani, V. Barone, 
 G. A. Petersson, H. Nakatsuji, X. Li, M. Caricato, A. V. Marenich, 
 J. Bloino, B. G. Janesko, R. Gomperts, B. Mennucci, H. P. Hratchian, 
 J. V. Ortiz, A. F. Izmaylov, J. L. Sonnenberg, D. Williams-Young, 
 F. Ding, F. Lipparini, F. Egidi, J. Goings, B. Peng, A. Petrone, 
 T. Henderson, D. Ranasinghe, V. G. Zakrzewski, J. Gao, N. Rega, 
 G. Zheng, W. Liang, M. Hada, M. Ehara, K. Toyota, R. Fukuda, 
 J. Hasegawa, M. Ishida, T. Nakajima, Y. Honda, O. Kitao, H. Nakai, 
 T. Vreven, K. Throssell, J. A. Montgomery, Jr., J. E. Peralta, 
 F. Ogliaro, M. J. Bearpark, J. J. Heyd, E. N. Brothers, K. N. Kudin, 
 V. N. Staroverov, T. A. Keith, R. Kobayashi, J. Normand, 
 K. Raghavachari, A. P. Rendell, J. C. Burant, S. S. Iyengar, 
 J. Tomasi, M. Cossi, J. M. Millam, M. Klene, C. Adamo, R. Cammi, 
 J. W. Ochterski, R. L. Martin, K. Morokuma, O. Farkas, 
 J. B. Foresman, and D. J. Fox, Gaussian, Inc., Wallingford CT, 2019.
 
 ******************************************
 Gaussian 16:  ES64L-G16RevC.02  7-Dec-2021
                24-Jan-2023 
 ******************************************
 %NProcShared=16
 Will use up to   16 processors via shared memory.
 -----------------------------
 #n B3LYP/6-31G(d) Opt scf=xqc
 -----------------------------
 1/18=20,19=15,26=3,38=1/1,3;
 2/9=110,12=2,17=6,18=5,40=1/2;
 3/5=1,6=6,7=1,11=2,25=1,30=1,71=1,74=-5/1,2,3;
 4//1;
 5/5=2,8=3,13=1,38=5/2,8;
 6/7=2,8=2,9=2,10=2,28=1/1;
 7//1,2,3,16;
 1/18=20,19=15,26=3/3(2);
 2/9=110/2;
 99//99;
 2/9=110/2;
 3/5=1,6=6,7=1,11=2,25=1,30=1,71=1,74=-5/1,2,3;
 4/5=5,16=3,69=1/1;
 5/5=2,8=3,13=1,38=5/2,8;
 7//1,2,3,16;
 1/18=20,19=15,26=3/3(-5);
 2/9=110/2;
 6/7=2,8=2,9=2,10=2,19=2,28=1/1;
 99/9=1/99;
 ----------
 gy2_CoCr_C
 ----------
 Symbolic Z-matrix:
 Charge =  0 Multiplicity = 2
 C                     6.39     -8.60829   0. 
 C                     5.68     -7.37854   0. 
 C                     4.26     -7.37854   0. 
 C                     3.55     -8.60829   0. 
 C                     4.26     -9.83805   0. 
 C                     5.68     -9.83805   0. 
 C                     6.39     -6.14878   0. 
 C                     3.55     -6.14878   0. 
 C                     7.1      -4.91902   0. 
 C                     2.84     -4.91902   0. 
 C                     7.81     -3.68927   0. 
 C                     2.13     -3.68927   0. 
 C                     8.52     -2.45951   0. 
 C                     1.42     -2.45951   0. 
 H                     7.48     -8.60829   0. 
 H                     2.46     -8.60829   0. 
 H                     3.715    -10.78202   0. 
 H                     6.225    -10.78202   0. 
 Co                    4.97     -4.76829   0. 
 H                     12.45     0.        0. 
 H                     11.195   -2.17372   0. 
 H                     11.195    2.17372   0. 
 H                     8.685     2.17372   0. 
 C                     11.36     0.        0. 
 C                     10.65     1.22976   0. 
 C                     9.23      1.22976   0. 
 C                     8.52      0.        0. 
 C                     9.23     -1.22976   0. 
 C                     10.65    -1.22976   0. 
 Cr                    6.61446  -1.92      0. 
 C                     7.1       0.        0. 
 C                     5.68      0.        0. 
 C                     4.26      0.        0. 
 C                     2.84      0.        0. 
 C                     1.42      0.        0. 
 C                     0.71      1.22976   0. 
 C                    -0.71      1.22976   0. 
 C                    -1.42      0.        0. 
 C                    -0.71     -1.22976   0. 
 C                     0.71     -1.22976   0. 
 H                     1.255     2.17372   0. 
 H                    -1.255     2.17372   0. 
 H                    -2.51      0.        0. 
 H                    -1.255    -2.17372   0. 
 

 GradGradGradGradGradGradGradGradGradGradGradGradGradGradGradGradGradGrad
 Berny optimization.
 Initialization pass.
                           ----------------------------
                           !    Initial Parameters    !
                           ! (Angstroms and Degrees)  !
 --------------------------                            --------------------------
 ! Name  Definition              Value          Derivative Info.                !
 --------------------------------------------------------------------------------
 ! R1    R(1,2)                  1.42           estimate D2E/DX2                !
 ! R2    R(1,6)                  1.42           estimate D2E/DX2                !
 ! R3    R(1,15)                 1.09           estimate D2E/DX2                !
 ! R4    R(2,3)                  1.42           estimate D2E/DX2                !
 ! R5    R(2,7)                  1.42           estimate D2E/DX2                !
 ! R6    R(3,4)                  1.42           estimate D2E/DX2                !
 ! R7    R(3,8)                  1.42           estimate D2E/DX2                !
 ! R8    R(4,5)                  1.42           estimate D2E/DX2                !
 ! R9    R(4,16)                 1.09           estimate D2E/DX2                !
 ! R10   R(5,6)                  1.42           estimate D2E/DX2                !
 ! R11   R(5,17)                 1.09           estimate D2E/DX2                !
 ! R12   R(6,18)                 1.09           estimate D2E/DX2                !
 ! R13   R(7,9)                  1.42           estimate D2E/DX2                !
 ! R14   R(7,19)                 1.9804         estimate D2E/DX2                !
 ! R15   R(8,10)                 1.42           estimate D2E/DX2                !
 ! R16   R(8,19)                 1.9804         estimate D2E/DX2                !
 ! R17   R(9,11)                 1.42           estimate D2E/DX2                !
 ! R18   R(9,19)                 2.1353         estimate D2E/DX2                !
 ! R19   R(10,12)                1.42           estimate D2E/DX2                !
 ! R20   R(10,19)                2.1353         estimate D2E/DX2                !
 ! R21   R(11,13)                1.42           estimate D2E/DX2                !
 ! R22   R(11,30)                2.1353         estimate D2E/DX2                !
 ! R23   R(12,14)                1.42           estimate D2E/DX2                !
 ! R24   R(13,28)                1.42           estimate D2E/DX2                !
 ! R25   R(13,30)                1.9804         estimate D2E/DX2                !
 ! R26   R(14,40)                1.42           estimate D2E/DX2                !
 ! R27   R(20,24)                1.09           estimate D2E/DX2                !
 ! R28   R(21,29)                1.09           estimate D2E/DX2                !
 ! R29   R(22,25)                1.09           estimate D2E/DX2                !
 ! R30   R(23,26)                1.09           estimate D2E/DX2                !
 ! R31   R(24,25)                1.42           estimate D2E/DX2                !
 ! R32   R(24,29)                1.42           estimate D2E/DX2                !
 ! R33   R(25,26)                1.42           estimate D2E/DX2                !
 ! R34   R(26,27)                1.42           estimate D2E/DX2                !
 ! R35   R(27,28)                1.42           estimate D2E/DX2                !
 ! R36   R(27,31)                1.42           estimate D2E/DX2                !
 ! R37   R(28,29)                1.42           estimate D2E/DX2                !
 ! R38   R(30,31)                1.9804         estimate D2E/DX2                !
 ! R39   R(30,32)                2.1353         estimate D2E/DX2                !
 ! R40   R(31,32)                1.42           estimate D2E/DX2                !
 ! R41   R(32,33)                1.42           estimate D2E/DX2                !
 ! R42   R(33,34)                1.42           estimate D2E/DX2                !
 ! R43   R(34,35)                1.42           estimate D2E/DX2                !
 ! R44   R(35,36)                1.42           estimate D2E/DX2                !
 ! R45   R(35,40)                1.42           estimate D2E/DX2                !
 ! R46   R(36,37)                1.42           estimate D2E/DX2                !
 ! R47   R(36,41)                1.09           estimate D2E/DX2                !
 ! R48   R(37,38)                1.42           estimate D2E/DX2                !
 ! R49   R(37,42)                1.09           estimate D2E/DX2                !
 ! R50   R(38,39)                1.42           estimate D2E/DX2                !
 ! R51   R(38,43)                1.09           estimate D2E/DX2                !
 ! R52   R(39,40)                1.42           estimate D2E/DX2                !
 ! R53   R(39,44)                1.09           estimate D2E/DX2                !
 ! A1    A(2,1,6)              120.0            estimate D2E/DX2                !
 ! A2    A(2,1,15)             120.0            estimate D2E/DX2                !
 ! A3    A(6,1,15)             120.0            estimate D2E/DX2                !
 ! A4    A(1,2,3)              120.0            estimate D2E/DX2                !
 ! A5    A(1,2,7)              120.0            estimate D2E/DX2                !
 ! A6    A(3,2,7)              120.0            estimate D2E/DX2                !
 ! A7    A(2,3,4)              120.0            estimate D2E/DX2                !
 ! A8    A(2,3,8)              120.0            estimate D2E/DX2                !
 ! A9    A(4,3,8)              120.0            estimate D2E/DX2                !
 ! A10   A(3,4,5)              120.0            estimate D2E/DX2                !
 ! A11   A(3,4,16)             120.0            estimate D2E/DX2                !
 ! A12   A(5,4,16)             120.0            estimate D2E/DX2                !
 ! A13   A(4,5,6)              120.0            estimate D2E/DX2                !
 ! A14   A(4,5,17)             120.0            estimate D2E/DX2                !
 ! A15   A(6,5,17)             120.0            estimate D2E/DX2                !
 ! A16   A(1,6,5)              120.0            estimate D2E/DX2                !
 ! A17   A(1,6,18)             120.0            estimate D2E/DX2                !
 ! A18   A(5,6,18)             120.0            estimate D2E/DX2                !
 ! A19   A(2,7,19)             104.1917         estimate D2E/DX2                !
 ! A20   A(3,8,19)             104.1917         estimate D2E/DX2                !
 ! A21   A(11,9,19)            115.9521         estimate D2E/DX2                !
 ! A22   A(12,10,19)           115.9521         estimate D2E/DX2                !
 ! A23   A(9,11,30)            115.9521         estimate D2E/DX2                !
 ! A24   A(28,13,30)           104.1917         estimate D2E/DX2                !
 ! A25   A(7,19,8)              91.6167         estimate D2E/DX2                !
 ! A26   A(7,19,10)            131.7605         estimate D2E/DX2                !
 ! A27   A(8,19,9)             131.7605         estimate D2E/DX2                !
 ! A28   A(20,24,25)           120.0            estimate D2E/DX2                !
 ! A29   A(20,24,29)           120.0            estimate D2E/DX2                !
 ! A30   A(25,24,29)           120.0            estimate D2E/DX2                !
 ! A31   A(22,25,24)           120.0            estimate D2E/DX2                !
 ! A32   A(22,25,26)           120.0            estimate D2E/DX2                !
 ! A33   A(24,25,26)           120.0            estimate D2E/DX2                !
 ! A34   A(23,26,25)           120.0            estimate D2E/DX2                !
 ! A35   A(23,26,27)           120.0            estimate D2E/DX2                !
 ! A36   A(25,26,27)           120.0            estimate D2E/DX2                !
 ! A37   A(26,27,28)           120.0            estimate D2E/DX2                !
 ! A38   A(26,27,31)           120.0            estimate D2E/DX2                !
 ! A39   A(28,27,31)           120.0            estimate D2E/DX2                !
 ! A40   A(13,28,27)           120.0            estimate D2E/DX2                !
 ! A41   A(13,28,29)           120.0            estimate D2E/DX2                !
 ! A42   A(27,28,29)           120.0            estimate D2E/DX2                !
 ! A43   A(21,29,24)           120.0            estimate D2E/DX2                !
 ! A44   A(21,29,28)           120.0            estimate D2E/DX2                !
 ! A45   A(24,29,28)           120.0            estimate D2E/DX2                !
 ! A46   A(11,30,31)           131.7605         estimate D2E/DX2                !
 ! A47   A(13,30,31)            91.6167         estimate D2E/DX2                !
 ! A48   A(13,30,32)           131.7605         estimate D2E/DX2                !
 ! A49   A(27,31,30)           104.1917         estimate D2E/DX2                !
 ! A50   A(30,32,33)           115.9521         estimate D2E/DX2                !
 ! A51   A(34,35,36)           120.0            estimate D2E/DX2                !
 ! A52   A(34,35,40)           120.0            estimate D2E/DX2                !
 ! A53   A(36,35,40)           120.0            estimate D2E/DX2                !
 ! A54   A(35,36,37)           120.0            estimate D2E/DX2                !
 ! A55   A(35,36,41)           120.0            estimate D2E/DX2                !
 ! A56   A(37,36,41)           120.0            estimate D2E/DX2                !
 ! A57   A(36,37,38)           120.0            estimate D2E/DX2                !
 ! A58   A(36,37,42)           120.0            estimate D2E/DX2                !
 ! A59   A(38,37,42)           120.0            estimate D2E/DX2                !
 ! A60   A(37,38,39)           120.0            estimate D2E/DX2                !
 ! A61   A(37,38,43)           120.0            estimate D2E/DX2                !
 ! A62   A(39,38,43)           120.0            estimate D2E/DX2                !
 ! A63   A(38,39,40)           120.0            estimate D2E/DX2                !
 ! A64   A(38,39,44)           120.0            estimate D2E/DX2                !
 ! A65   A(40,39,44)           120.0            estimate D2E/DX2                !
 ! A66   A(14,40,35)           120.0            estimate D2E/DX2                !
 ! A67   A(14,40,39)           120.0            estimate D2E/DX2                !
 ! A68   A(35,40,39)           120.0            estimate D2E/DX2                !
 ! A69   L(2,7,9,10,-1)        180.0            estimate D2E/DX2                !
 ! A70   L(3,8,10,9,-1)        180.0            estimate D2E/DX2                !
 ! A71   L(7,9,11,12,-1)       180.0            estimate D2E/DX2                !
 ! A72   L(8,10,12,11,-1)      180.0            estimate D2E/DX2                !
 ! A73   L(9,11,13,14,-1)      180.0            estimate D2E/DX2                !
 ! A74   L(10,12,14,13,-1)     180.0            estimate D2E/DX2                !
 ! A75   L(11,13,28,30,-1)     180.0            estimate D2E/DX2                !
 ! A76   L(12,14,40,20,-1)     180.0            estimate D2E/DX2                !
 ! A77   L(9,19,10,2,-1)       171.9043         estimate D2E/DX2                !
 ! A78   L(11,30,32,10,-1)     188.0957         estimate D2E/DX2                !
 ! A79   L(27,31,32,1,-1)      180.0            estimate D2E/DX2                !
 ! A80   L(31,32,33,1,-1)      180.0            estimate D2E/DX2                !
 ! A81   L(32,33,34,1,-1)      180.0            estimate D2E/DX2                !
 ! A82   L(33,34,35,1,-1)      180.0            estimate D2E/DX2                !
 ! A83   L(2,7,9,10,-2)        180.0            estimate D2E/DX2                !
 ! A84   L(3,8,10,9,-2)        180.0            estimate D2E/DX2                !
 ! A85   L(7,9,11,12,-2)       180.0            estimate D2E/DX2                !
 ! A86   L(8,10,12,11,-2)      180.0            estimate D2E/DX2                !
 ! A87   L(9,11,13,14,-2)      180.0            estimate D2E/DX2                !
 ! A88   L(10,12,14,13,-2)     180.0            estimate D2E/DX2                !
 ! A89   L(11,13,28,30,-2)     180.0            estimate D2E/DX2                !
 ! A90   L(12,14,40,20,-2)     180.0            estimate D2E/DX2                !
 ! A91   L(9,19,10,2,-2)       180.0            estimate D2E/DX2                !
 ! A92   L(11,30,32,10,-2)     180.0            estimate D2E/DX2                !
 ! A93   L(27,31,32,1,-2)      180.0            estimate D2E/DX2                !
 ! A94   L(31,32,33,1,-2)      180.0            estimate D2E/DX2                !
 ! A95   L(32,33,34,1,-2)      180.0            estimate D2E/DX2                !
 ! A96   L(33,34,35,1,-2)      180.0            estimate D2E/DX2                !
 ! D1    D(6,1,2,3)              0.0            estimate D2E/DX2                !
 ! D2    D(6,1,2,7)            180.0            estimate D2E/DX2                !
 ! D3    D(15,1,2,3)           180.0            estimate D2E/DX2                !
 ! D4    D(15,1,2,7)             0.0            estimate D2E/DX2                !
 ! D5    D(2,1,6,5)              0.0            estimate D2E/DX2                !
 ! D6    D(2,1,6,18)           180.0            estimate D2E/DX2                !
 ! D7    D(15,1,6,5)           180.0            estimate D2E/DX2                !
 ! D8    D(15,1,6,18)            0.0            estimate D2E/DX2                !
 ! D9    D(1,2,3,4)              0.0            estimate D2E/DX2                !
 ! D10   D(1,2,3,8)            180.0            estimate D2E/DX2                !
 ! D11   D(7,2,3,4)            180.0            estimate D2E/DX2                !
 ! D12   D(7,2,3,8)              0.0            estimate D2E/DX2                !
 ! D13   D(1,2,7,19)           180.0            estimate D2E/DX2                !
 ! D14   D(3,2,7,19)             0.0            estimate D2E/DX2                !
 ! D15   D(2,3,4,5)              0.0            estimate D2E/DX2                !
 ! D16   D(2,3,4,16)           180.0            estimate D2E/DX2                !
 ! D17   D(8,3,4,5)            180.0            estimate D2E/DX2                !
 ! D18   D(8,3,4,16)             0.0            estimate D2E/DX2                !
 ! D19   D(2,3,8,19)             0.0            estimate D2E/DX2                !
 ! D20   D(4,3,8,19)           180.0            estimate D2E/DX2                !
 ! D21   D(3,4,5,6)              0.0            estimate D2E/DX2                !
 ! D22   D(3,4,5,17)           180.0            estimate D2E/DX2                !
 ! D23   D(16,4,5,6)           180.0            estimate D2E/DX2                !
 ! D24   D(16,4,5,17)            0.0            estimate D2E/DX2                !
 ! D25   D(4,5,6,1)              0.0            estimate D2E/DX2                !
 ! D26   D(4,5,6,18)           180.0            estimate D2E/DX2                !
 ! D27   D(17,5,6,1)           180.0            estimate D2E/DX2                !
 ! D28   D(17,5,6,18)            0.0            estimate D2E/DX2                !
 ! D29   D(2,7,19,8)             0.0            estimate D2E/DX2                !
 ! D30   D(2,7,19,10)            0.0            estimate D2E/DX2                !
 ! D31   D(9,7,19,11)            0.0            estimate D2E/DX2                !
 ! D32   D(3,8,19,7)             0.0            estimate D2E/DX2                !
 ! D33   D(3,8,19,9)             0.0            estimate D2E/DX2                !
 ! D34   D(19,9,11,30)           0.0            estimate D2E/DX2                !
 ! D35   D(11,9,19,8)          180.0            estimate D2E/DX2                !
 ! D36   D(11,9,30,13)           0.0            estimate D2E/DX2                !
 ! D37   D(19,10,40,35)          0.0            estimate D2E/DX2                !
 ! D38   D(19,10,40,39)        180.0            estimate D2E/DX2                !
 ! D39   D(12,10,19,7)         180.0            estimate D2E/DX2                !
 ! D40   D(9,11,30,31)         180.0            estimate D2E/DX2                !
 ! D41   D(30,13,28,27)          0.0            estimate D2E/DX2                !
 ! D42   D(30,13,28,29)        180.0            estimate D2E/DX2                !
 ! D43   D(28,13,30,31)          0.0            estimate D2E/DX2                !
 ! D44   D(28,13,30,32)          0.0            estimate D2E/DX2                !
 ! D45   D(20,24,25,22)          0.0            estimate D2E/DX2                !
 ! D46   D(20,24,25,26)        180.0            estimate D2E/DX2                !
 ! D47   D(29,24,25,22)        180.0            estimate D2E/DX2                !
 ! D48   D(29,24,25,26)          0.0            estimate D2E/DX2                !
 ! D49   D(20,24,29,21)          0.0            estimate D2E/DX2                !
 ! D50   D(20,24,29,28)        180.0            estimate D2E/DX2                !
 ! D51   D(25,24,29,21)        180.0            estimate D2E/DX2                !
 ! D52   D(25,24,29,28)          0.0            estimate D2E/DX2                !
 ! D53   D(22,25,26,23)          0.0            estimate D2E/DX2                !
 ! D54   D(22,25,26,27)        180.0            estimate D2E/DX2                !
 ! D55   D(24,25,26,23)        180.0            estimate D2E/DX2                !
 ! D56   D(24,25,26,27)          0.0            estimate D2E/DX2                !
 ! D57   D(23,26,27,28)        180.0            estimate D2E/DX2                !
 ! D58   D(23,26,27,31)          0.0            estimate D2E/DX2                !
 ! D59   D(25,26,27,28)          0.0            estimate D2E/DX2                !
 ! D60   D(25,26,27,31)        180.0            estimate D2E/DX2                !
 ! D61   D(26,27,28,13)        180.0            estimate D2E/DX2                !
 ! D62   D(26,27,28,29)          0.0            estimate D2E/DX2                !
 ! D63   D(31,27,28,13)          0.0            estimate D2E/DX2                !
 ! D64   D(31,27,28,29)        180.0            estimate D2E/DX2                !
 ! D65   D(26,27,31,30)        180.0            estimate D2E/DX2                !
 ! D66   D(28,27,31,30)          0.0            estimate D2E/DX2                !
 ! D67   D(13,28,29,21)          0.0            estimate D2E/DX2                !
 ! D68   D(13,28,29,24)        180.0            estimate D2E/DX2                !
 ! D69   D(27,28,29,21)        180.0            estimate D2E/DX2                !
 ! D70   D(27,28,29,24)          0.0            estimate D2E/DX2                !
 ! D71   D(11,30,31,27)          0.0            estimate D2E/DX2                !
 ! D72   D(13,30,31,27)          0.0            estimate D2E/DX2                !
 ! D73   D(13,30,32,33)        180.0            estimate D2E/DX2                !
 ! D74   D(30,32,35,36)        180.0            estimate D2E/DX2                !
 ! D75   D(30,32,35,40)          0.0            estimate D2E/DX2                !
 ! D76   D(34,35,36,37)        180.0            estimate D2E/DX2                !
 ! D77   D(34,35,36,41)          0.0            estimate D2E/DX2                !
 ! D78   D(40,35,36,37)          0.0            estimate D2E/DX2                !
 ! D79   D(40,35,36,41)        180.0            estimate D2E/DX2                !
 ! D80   D(34,35,40,14)          0.0            estimate D2E/DX2                !
 ! D81   D(34,35,40,39)        180.0            estimate D2E/DX2                !
 ! D82   D(36,35,40,14)        180.0            estimate D2E/DX2                !
 ! D83   D(36,35,40,39)          0.0            estimate D2E/DX2                !
 ! D84   D(35,36,37,38)          0.0            estimate D2E/DX2                !
 ! D85   D(35,36,37,42)        180.0            estimate D2E/DX2                !
 ! D86   D(41,36,37,38)        180.0            estimate D2E/DX2                !
 ! D87   D(41,36,37,42)          0.0            estimate D2E/DX2                !
 ! D88   D(36,37,38,39)          0.0            estimate D2E/DX2                !
 ! D89   D(36,37,38,43)        180.0            estimate D2E/DX2                !
 ! D90   D(42,37,38,39)        180.0            estimate D2E/DX2                !
 ! D91   D(42,37,38,43)          0.0            estimate D2E/DX2                !
 ! D92   D(37,38,39,40)          0.0            estimate D2E/DX2                !
 ! D93   D(37,38,39,44)        180.0            estimate D2E/DX2                !
 ! D94   D(43,38,39,40)        180.0            estimate D2E/DX2                !
 ! D95   D(43,38,39,44)          0.0            estimate D2E/DX2                !
 ! D96   D(38,39,40,14)        180.0            estimate D2E/DX2                !
 ! D97   D(38,39,40,35)          0.0            estimate D2E/DX2                !
 ! D98   D(44,39,40,14)          0.0            estimate D2E/DX2                !
 ! D99   D(44,39,40,35)        180.0            estimate D2E/DX2                !
 --------------------------------------------------------------------------------
 Trust Radius=3.00D-01 FncErr=1.00D-07 GrdErr=1.00D-06 EigMax=2.50D+02 EigMin=1.00D-04
 Number of steps in this run=    258 maximum allowed number of steps=    264.
 GradGradGradGradGradGradGradGradGradGradGradGradGradGradGradGradGradGrad

                          Input orientation:                          
 ---------------------------------------------------------------------
 Center     Atomic      Atomic             Coordinates (Angstroms)
 Number     Number       Type             X           Y           Z
 ---------------------------------------------------------------------
      1          6           0        6.390000   -8.608293    0.000000
      2          6           0        5.680000   -7.378536    0.000000
      3          6           0        4.260000   -7.378536    0.000000
      4          6           0        3.550000   -8.608293    0.000000
      5          6           0        4.260000   -9.838049    0.000000
      6          6           0        5.680000   -9.838049    0.000000
      7          6           0        6.390000   -6.148780    0.000000
      8          6           0        3.550000   -6.148780    0.000000
      9          6           0        7.100000   -4.919024    0.000000
     10          6           0        2.840000   -4.919024    0.000000
     11          6           0        7.810000   -3.689268    0.000000
     12          6           0        2.130000   -3.689268    0.000000
     13          6           0        8.520000   -2.459512    0.000000
     14          6           0        1.420000   -2.459512    0.000000
     15          1           0        7.480000   -8.608293    0.000000
     16          1           0        2.460000   -8.608293    0.000000
     17          1           0        3.715000  -10.782016    0.000000
     18          1           0        6.225000  -10.782016    0.000000
     19         27           0        4.970000   -4.768293    0.000000
     20          1           0       12.450000    0.000000    0.000000
     21          1           0       11.195000   -2.173724    0.000000
     22          1           0       11.195000    2.173724    0.000000
     23          1           0        8.685000    2.173724    0.000000
     24          6           0       11.360000    0.000000    0.000000
     25          6           0       10.650000    1.229756    0.000000
     26          6           0        9.230000    1.229756    0.000000
     27          6           0        8.520000    0.000000    0.000000
     28          6           0        9.230000   -1.229756    0.000000
     29          6           0       10.650000   -1.229756    0.000000
     30         24           0        6.614462   -1.920000    0.000000
     31          6           0        7.100000    0.000000    0.000000
     32          6           0        5.680000    0.000000    0.000000
     33          6           0        4.260000    0.000000    0.000000
     34          6           0        2.840000    0.000000    0.000000
     35          6           0        1.420000    0.000000    0.000000
     36          6           0        0.710000    1.229756    0.000000
     37          6           0       -0.710000    1.229756    0.000000
     38          6           0       -1.420000    0.000000    0.000000
     39          6           0       -0.710000   -1.229756    0.000000
     40          6           0        0.710000   -1.229756    0.000000
     41          1           0        1.255000    2.173724    0.000000
     42          1           0       -1.255000    2.173724    0.000000
     43          1           0       -2.510000    0.000000    0.000000
     44          1           0       -1.255000   -2.173724    0.000000
 ---------------------------------------------------------------------
                    Distance matrix (angstroms):
                    1          2          3          4          5
     1  C    0.000000
     2  C    1.420000   0.000000
     3  C    2.459512   1.420000   0.000000
     4  C    2.840000   2.459512   1.420000   0.000000
     5  C    2.459512   2.840000   2.459512   1.420000   0.000000
     6  C    1.420000   2.459512   2.840000   2.459512   1.420000
     7  C    2.459512   1.420000   2.459512   3.756967   4.260000
     8  C    3.756967   2.459512   1.420000   2.459512   3.756967
     9  C    3.756967   2.840000   3.756967   5.119883   5.680000
    10  C    5.119883   3.756967   2.840000   3.756967   5.119883
    11  C    5.119883   4.260000   5.119883   6.507257   7.100000
    12  C    6.507257   5.119883   4.260000   5.119883   6.507257
    13  C    6.507257   5.680000   6.507257   7.906225   8.520000
    14  C    7.906225   6.507257   5.680000   6.507257   7.906225
    15  H    1.090000   2.179977   3.446839   3.930000   3.446839
    16  H    3.930000   3.446839   2.179977   1.090000   2.179977
    17  H    3.446839   3.930000   3.446839   2.179977   1.090000
    18  H    2.179977   3.446839   3.930000   3.446839   2.179977
    19  Co   4.094142   2.705083   2.705083   4.094142   5.119231
    20  H   10.527407  10.013776  11.023561  12.381951  12.800910
    21  H    8.030672   7.583225   8.670888   9.992482  10.336155
    22  H   11.804232  11.030000  11.804232  13.217333  13.870000
    23  H   11.023561  10.013776  10.527407  11.942366  12.800910
    24  C    9.940000   9.311563  10.239766  11.623201  12.132485
    25  C   10.720765   9.940000  10.720765  12.132485  12.780000
    26  C   10.239766   9.311563   9.940000  11.360000  12.132485
    27  C    8.867897   7.906225   8.520000   9.940000  10.720765
    28  C    7.906225   7.100000   7.906225   9.311563   9.940000
    29  C    8.520000   7.906225   8.867897  10.239766  10.720765
    30  Cr   6.692058   5.537945   5.944671   7.356914   8.260689
    31  C    8.637523   7.513934   7.906225   9.311563  10.239766
    32  C    8.637523   7.378536   7.513934   8.867897   9.940000
    33  C    8.867897   7.513934   7.378536   8.637523   9.838049
    34  C    9.311563   7.906225   7.513934   8.637523   9.940000
    35  C    9.940000   8.520000   7.906225   8.867897  10.239766
    36  C   11.360000   9.940000   9.311563  10.239766  11.623201
    37  C   12.132485  10.720765   9.940000  10.720765  12.132485
    38  C   11.623201  10.239766   9.311563   9.940000  11.360000
    39  C   10.239766   8.867897   7.906225   8.520000   9.940000
    40  C    9.311563   7.906225   7.100000   7.906225   9.311563
    41  H   11.942366  10.527407  10.013776  11.023561  12.381951
    42  H   13.217333  11.804232  11.030000  11.804232  13.217333
    43  H   12.381951  11.023561  10.013776  10.527407  11.942366
    44  H    9.992482   8.670888   7.583225   8.030672   9.442304
                    6          7          8          9         10
     6  C    0.000000
     7  C    3.756967   0.000000
     8  C    4.260000   2.840000   0.000000
     9  C    5.119883   1.420000   3.756967   0.000000
    10  C    5.680000   3.756967   1.420000   4.260000   0.000000
    11  C    6.507257   2.840000   4.919024   1.420000   5.119883
    12  C    7.100000   4.919024   2.840000   5.119883   1.420000
    13  C    7.906225   4.260000   6.189636   2.840000   6.189636
    14  C    8.520000   6.189636   4.260000   6.189636   2.840000
    15  H    2.179977   2.690223   4.636173   3.708787   5.927925
    16  H    3.446839   4.636173   2.690223   5.927925   3.708787
    17  H    2.179977   5.350000   4.636173   6.770000   5.927925
    18  H    1.090000   4.636173   5.350000   5.927925   6.770000
    19  Co   5.119231   1.980441   1.980441   2.135327   2.135327
    20  H   11.942366   8.633140  10.817463   7.267689  10.795782
    21  H    9.442304   6.236113   8.616676   4.930081   8.794470
    22  H   13.217333   9.610000  11.300889   8.190000  10.959612
    23  H   12.381951   8.633140   9.779177   7.267689   9.190816
    24  C   11.360000   7.906225   9.940000   6.507257   9.838049
    25  C   12.132485   8.520000  10.239766   7.100000   9.940000
    26  C   11.623201   7.906225   9.311563   6.507257   8.867897
    27  C   10.239766   6.507257   7.906225   5.119883   7.513934
    28  C    9.311563   5.680000   7.513934   4.260000   7.378536
    29  C    9.940000   6.507257   8.637523   5.119883   8.637523
    30  Cr   7.972999   4.234733   5.222405   3.038074   4.820862
    31  C    9.940000   6.189637   7.100000   4.919024   6.507257
    32  C    9.838049   6.189637   6.507257   5.119883   5.680000
    33  C    9.940000   6.507257   6.189637   5.680000   5.119883
    34  C   10.239766   7.100000   6.189637   6.507257   4.919024
    35  C   10.720765   7.906225   6.507257   7.513934   5.119883
    36  C   12.132485   9.311563   7.906225   8.867897   6.507257
    37  C   12.780000  10.239766   8.520000   9.940000   7.100000
    38  C   12.132485   9.940000   7.906225   9.838049   6.507257
    39  C   10.720765   8.637523   6.507257   8.637523   5.119883
    40  C    9.940000   7.513934   5.680000   7.378536   4.260000
    41  H   12.800910   9.779177   8.633140   9.190816   7.267689
    42  H   13.870000  11.300889   9.610000  10.959612   8.190000
    43  H   12.800910  10.817463   8.633140  10.795782   7.267689
    44  H   10.336155   8.616676   6.236113   8.794470   4.930081
                   11         12         13         14         15
    11  C    0.000000
    12  C    5.680000   0.000000
    13  C    1.420000   6.507257   0.000000
    14  C    6.507257   1.420000   7.100000   0.000000
    15  H    4.930081   7.267689   6.236113   8.633140   0.000000
    16  H    7.267689   4.930081   8.633140   6.236113   5.020000
    17  H    8.190000   7.267689   9.610000   8.633140   4.347448
    18  H    7.267689   8.190000   8.633140   9.610000   2.510000
    19  Co   3.038074   3.038074   4.234733   4.234733   4.587559
    20  H    5.927925  10.959612   4.636173  11.300889   9.940000
    21  H    3.708787   9.190816   2.690223   9.779177   7.430000
    22  H    6.770000  10.795782   5.350000  10.817463  11.404083
    23  H    5.927925   8.794470   4.636173   8.616676  10.849143
    24  C    5.119883   9.940000   3.756967  10.239766   9.442304
    25  C    5.680000   9.838049   4.260000   9.940000  10.336155
    26  C    5.119883   8.637523   3.756967   8.637523   9.992482
    27  C    3.756967   7.378536   2.459512   7.513934   8.670888
    28  C    2.840000   7.513934   1.420000   7.906225   7.583225
    29  C    3.756967   8.867897   2.459512   9.311563   8.030672
    30  Cr   2.135327   4.820862   1.980441   5.222405   6.744065
    31  C    3.756967   6.189636   2.840000   6.189637   8.616676
    32  C    4.260000   5.119883   3.756967   4.919024   8.794470
    33  C    5.119883   4.260000   4.919024   3.756967   9.190816
    34  C    6.189636   3.756967   6.189637   2.840000   9.779177
    35  C    7.378536   3.756967   7.513934   2.459512  10.527407
    36  C    8.637523   5.119883   8.637523   3.756967  11.942366
    37  C    9.838049   5.680000   9.940000   4.260000  12.800910
    38  C    9.940000   5.119883  10.239766   3.756967  12.381951
    39  C    8.867897   3.756967   9.311563   2.459512  11.023561
    40  C    7.513934   2.840000   7.906225   1.420000  10.013776
    41  H    8.794470   5.927925   8.616676   4.636173  12.450000
    42  H   10.795782   6.770000  10.817463   5.350000  13.876314
    43  H   10.959612   5.927925  11.300889   4.636173  13.187221
    44  H    9.190816   3.708787   9.779177   2.690223  10.849143
                   16         17         18         19         20
    16  H    0.000000
    17  H    2.510000   0.000000
    18  H    4.347448   2.510000   0.000000
    19  Co   4.587559   6.143281   6.143281   0.000000
    20  H   13.187221  13.876314  12.450000   8.870570   0.000000
    21  H   10.849143  11.404083   9.940000   6.744065   2.510000
    22  H   13.876314  14.960000  13.876314   9.324281   2.510000
    23  H   12.450000  13.876314  13.187221   7.873552   4.347448
    24  C   12.381951  13.217333  11.942366   7.972999   1.090000
    25  C   12.800910  13.870000  12.800910   8.260689   2.179977
    26  C   11.942366  13.217333  12.381951   7.356914   3.446839
    27  C   10.527407  11.804232  11.023561   5.944671   3.930000
    28  C   10.013776  11.030000  10.013776   5.537945   3.446839
    29  C   11.023561  11.804232  10.527407   6.692058   2.179977
    30  Cr   7.873552   9.324281   8.870570   3.288925   6.143281
    31  C    9.779177  11.300889  10.817463   5.222405   5.350000
    32  C    9.190816  10.959612  10.795782   4.820862   6.770000
    33  C    8.794470  10.795782  10.959612   4.820862   8.190000
    34  C    8.616676  10.817463  11.300889   5.222405   9.610000
    35  C    8.670888  11.023561  11.804232   5.944671  11.030000
    36  C    9.992482  12.381951  13.217333   7.356914  11.804232
    37  C   10.336155  12.800910  13.870000   8.260689  13.217333
    38  C    9.442304  11.942366  13.217333   7.972999  13.870000
    39  C    8.030672  10.527407  11.804232   6.692058  13.217333
    40  C    7.583225  10.013776  11.030000   5.537945  11.804232
    41  H   10.849143  13.187221  13.876314   7.873552  11.404083
    42  H   11.404083  13.876314  14.960000   9.324281  13.876314
    43  H    9.940000  12.450000  13.876314   8.870570  14.960000
    44  H    7.430000   9.940000  11.404083   6.744065  13.876314
                   21         22         23         24         25
    21  H    0.000000
    22  H    4.347448   0.000000
    23  H    5.020000   2.510000   0.000000
    24  C    2.179977   2.179977   3.446839   0.000000
    25  C    3.446839   1.090000   2.179977   1.420000   0.000000
    26  C    3.930000   2.179977   1.090000   2.459512   1.420000
    27  C    3.446839   3.446839   2.179977   2.840000   2.459512
    28  C    2.179977   3.930000   3.446839   2.459512   2.840000
    29  C    1.090000   3.446839   3.930000   1.420000   2.459512
    30  Cr   4.587559   6.143281   4.587559   5.119231   5.119231
    31  C    4.636173   4.636173   2.690223   4.260000   3.756967
    32  C    5.927925   5.927925   3.708787   5.680000   5.119883
    33  C    7.267689   7.267689   4.930081   7.100000   6.507257
    34  C    8.633140   8.633140   6.236113   8.520000   7.906225
    35  C   10.013776  10.013776   7.583225   9.940000   9.311563
    36  C   11.023561  10.527407   8.030672  10.720765   9.940000
    37  C   12.381951  11.942366   9.442304  12.132485  11.360000
    38  C   12.800910  12.800910  10.336155  12.780000  12.132485
    39  C   11.942366  12.381951   9.992482  12.132485  11.623201
    40  C   10.527407  11.023561   8.670888  10.720765  10.239766
    41  H   10.849143   9.940000   7.430000  10.336155   9.442304
    42  H   13.187221  12.450000   9.940000  12.800910  11.942366
    43  H   13.876314  13.876314  11.404083  13.870000  13.217333
    44  H   12.450000  13.187221  10.849143  12.800910  12.381951
                   26         27         28         29         30
    26  C    0.000000
    27  C    1.420000   0.000000
    28  C    2.459512   1.420000   0.000000
    29  C    2.840000   2.459512   1.420000   0.000000
    30  Cr   4.094142   2.705083   2.705083   4.094142   0.000000
    31  C    2.459512   1.420000   2.459512   3.756967   1.980441
    32  C    3.756967   2.840000   3.756967   5.119883   2.135327
    33  C    5.119883   4.260000   5.119883   6.507257   3.038074
    34  C    6.507257   5.680000   6.507257   7.906225   4.234733
    35  C    7.906225   7.100000   7.906225   9.311563   5.537945
    36  C    8.520000   7.906225   8.867897  10.239766   6.692058
    37  C    9.940000   9.311563  10.239766  11.623201   7.972999
    38  C   10.720765   9.940000  10.720765  12.132485   8.260689
    39  C   10.239766   9.311563   9.940000  11.360000   7.356914
    40  C    8.867897   7.906225   8.520000   9.940000   5.944671
    41  H    8.030672   7.583225   8.670888   9.992482   6.744065
    42  H   10.527407  10.013776  11.023561  12.381951   8.870570
    43  H   11.804232  11.030000  11.804232  13.217333   9.324281
    44  H   11.023561  10.013776  10.527407  11.942366   7.873552
                   31         32         33         34         35
    31  C    0.000000
    32  C    1.420000   0.000000
    33  C    2.840000   1.420000   0.000000
    34  C    4.260000   2.840000   1.420000   0.000000
    35  C    5.680000   4.260000   2.840000   1.420000   0.000000
    36  C    6.507257   5.119883   3.756967   2.459512   1.420000
    37  C    7.906225   6.507257   5.119883   3.756967   2.459512
    38  C    8.520000   7.100000   5.680000   4.260000   2.840000
    39  C    7.906225   6.507257   5.119883   3.756967   2.459512
    40  C    6.507257   5.119883   3.756967   2.459512   1.420000
    41  H    6.236113   4.930081   3.708787   2.690223   2.179977
    42  H    8.633140   7.267689   5.927925   4.636173   3.446839
    43  H    9.610000   8.190000   6.770000   5.350000   3.930000
    44  H    8.633140   7.267689   5.927925   4.636173   3.446839
                   36         37         38         39         40
    36  C    0.000000
    37  C    1.420000   0.000000
    38  C    2.459512   1.420000   0.000000
    39  C    2.840000   2.459512   1.420000   0.000000
    40  C    2.459512   2.840000   2.459512   1.420000   0.000000
    41  H    1.090000   2.179977   3.446839   3.930000   3.446839
    42  H    2.179977   1.090000   2.179977   3.446839   3.930000
    43  H    3.446839   2.179977   1.090000   2.179977   3.446839
    44  H    3.930000   3.446839   2.179977   1.090000   2.179977
                   41         42         43         44
    41  H    0.000000
    42  H    2.510000   0.000000
    43  H    4.347448   2.510000   0.000000
    44  H    5.020000   4.347448   2.510000   0.000000
 Stoichiometry    C30H12CoCr(2)
 Framework group  CS[SG(C30H12CoCr)]
 Deg. of freedom    85
 Full point group                 CS      NOp   2
 Largest Abelian subgroup         CS      NOp   2
 Largest concise Abelian subgroup C1      NOp   1
                         Standard orientation:                         
 ---------------------------------------------------------------------
 Center     Atomic      Atomic             Coordinates (Angstroms)
 Number     Number       Type             X           Y           Z
 ---------------------------------------------------------------------
      1          6           0       -3.899924   -4.239698   -0.000000
      2          6           0       -2.670168   -3.529698   -0.000000
      3          6           0       -1.440412   -4.239698    0.000000
      4          6           0       -1.440412   -5.659698    0.000000
      5          6           0       -2.670168   -6.369698    0.000000
      6          6           0       -3.899924   -5.659698   -0.000000
      7          6           0       -2.670168   -2.109698   -0.000000
      8          6           0       -0.210655   -3.529698    0.000000
      9          6           0       -2.670168   -0.689698   -0.000000
     10          6           0        1.019101   -2.819698    0.000000
     11          6           0       -2.670168    0.730302   -0.000000
     12          6           0        2.248857   -2.109698    0.000000
     13          6           0       -2.670168    2.150302   -0.000000
     14          6           0        3.478613   -1.399698    0.000000
     15          1           0       -4.843891   -3.694698   -0.000000
     16          1           0       -0.496444   -6.204698    0.000000
     17          1           0       -2.670168   -7.459698    0.000000
     18          1           0       -4.843891   -6.204698   -0.000000
     19         27           0       -0.750168   -1.624160    0.000000
     20          1           0       -4.843891    6.245302   -0.000000
     21          1           0       -4.843891    3.735302   -0.000000
     22          1           0       -2.670168    7.500302   -0.000000
     23          1           0       -0.496444    6.245302   -0.000000
     24          6           0       -3.899924    5.700302   -0.000000
     25          6           0       -2.670168    6.410302   -0.000000
     26          6           0       -1.440411    5.700302   -0.000000
     27          6           0       -1.440411    4.280302   -0.000000
     28          6           0       -2.670168    3.570302   -0.000000
     29          6           0       -3.899924    4.280302   -0.000000
     30         24           0       -0.750168    1.664764   -0.000000
     31          6           0       -0.210655    3.570302   -0.000000
     32          6           0        1.019101    2.860302   -0.000000
     33          6           0        2.248857    2.150302    0.000000
     34          6           0        3.478613    1.440302    0.000000
     35          6           0        4.708369    0.730302    0.000000
     36          6           0        5.938125    1.440302    0.000000
     37          6           0        7.167881    0.730302    0.000000
     38          6           0        7.167881   -0.689698    0.000000
     39          6           0        5.938125   -1.399698    0.000000
     40          6           0        4.708369   -0.689698    0.000000
     41          1           0        5.938125    2.530302    0.000000
     42          1           0        8.111849    1.275302    0.000000
     43          1           0        8.111849   -1.234698    0.000000
     44          1           0        5.938125   -2.489698    0.000000
 ---------------------------------------------------------------------
 Rotational constants (GHZ):           0.1023373           0.0979121           0.0500379
 Standard basis: 6-31G(d) (6D, 7F)
 There are   408 symmetry adapted cartesian basis functions of A'  symmetry.
 There are   144 symmetry adapted cartesian basis functions of A"  symmetry.
 There are   404 symmetry adapted basis functions of A'  symmetry.
 There are   142 symmetry adapted basis functions of A"  symmetry.
   546 basis functions,  1096 primitive gaussians,   552 cartesian basis functions
   122 alpha electrons      121 beta electrons
       nuclear repulsion energy      3356.8232740334 Hartrees.
 NAtoms=   44 NActive=   44 NUniq=   44 SFac= 1.00D+00 NAtFMM=   60 NAOKFM=F Big=F
 Integral buffers will be    131072 words long.
 Raffenetti 2 integral format.
 Two-electron integral symmetry is turned on.
 One-electron integrals computed using PRISM.
 PrsmSu:  requested number of processors reduced to:  12 ShMem   1 Linda.
 NBasis=   546 RedAO= T EigKep=  3.41D-05  NBF=   404   142
 NBsUse=   546 1.00D-06 EigRej= -1.00D+00 NBFU=   404   142
 ExpMin= 3.65D-02 ExpMax= 6.61D+04 ExpMxC= 9.93D+03 IAcc=3 IRadAn=         5 AccDes= 0.00D+00
 Harris functional with IExCor=  402 and IRadAn=       5 diagonalized for initial guess.
 HarFok:  IExCor=  402 AccDes= 0.00D+00 IRadAn=         5 IDoV= 1 UseB2=F ITyADJ=14
 ICtDFT=  3500011 ScaDFX=  1.000000  1.000000  1.000000  1.000000
 FoFCou: FMM=F IPFlag=           0 FMFlag=      100000 FMFlg1=           0
         NFxFlg=           0 DoJE=T BraDBF=F KetDBF=T FulRan=T
         wScrn=  0.000000 ICntrl=       500 IOpCl=  0 I1Cent=   200000004 NGrid=           0
         NMat0=    1 NMatS0=      1 NMatT0=    0 NMatD0=    1 NMtDS0=    0 NMtDT0=    0
 Petite list used in FoFCou.
 Initial guess orbital symmetries:
 Alpha Orbitals:
       Occupied  (A') (A') (A') (A') (A') (A") (A') (A') (A') (A")
                 (A') (A') (A') (A') (A') (A') (A') (A') (A') (A')
                 (A') (A') (A') (A') (A') (A') (A') (A') (A') (A')
                 (A') (A') (A') (A') (A') (A') (A') (A') (A') (A')
                 (A') (A') (A') (A') (A") (A') (A') (A") (A') (A')
                 (A') (A') (A') (A') (A') (A') (A') (A') (A') (A')
                 (A') (A') (A') (A') (A') (A') (A') (A') (A') (A')
                 (A') (A') (A') (A') (A') (A') (A') (A') (A') (A')
                 (A') (A') (A') (A') (A') (A') (A') (A") (A') (A')
                 (A') (A') (A') (A') (A") (A") (A') (A") (A') (A")
                 (A') (A") (A") (A") (A") (A') (A") (A") (A") (A')
                 (A') (A") (A") (A') (A") (A') (A") (A') (A") (A')
                 (A") (A')
       Virtual   (A") (A") (A') (A") (A") (A") (A') (A") (A") (A')
                 (A') (A") (A') (A') (A") (A") (A') (A') (A") (A")
                 (A') (A') (A") (A') (A") (A') (A') (A') (A") (A')
                 (A') (A") (A') (A') (A") (A') (A') (A') (A') (A")
                 (A') (A') (A') (A') (A') (A') (A') (A') (A') (A')
                 (A') (A') (A") (A') (A') (A') (A') (A") (A') (A')
                 (A') (A') (A') (A') (A') (A') (A') (A') (A') (A')
                 (A') (A') (A') (A') (A') (A') (A') (A') (A') (A')
                 (A") (A') (A') (A") (A') (A") (A') (A') (A") (A')
                 (A') (A') (A") (A') (A') (A") (A") (A") (A') (A')
                 (A') (A') (A') (A") (A") (A') (A") (A') (A") (A')
                 (A") (A') (A") (A') (A") (A") (A") (A') (A') (A")
                 (A") (A') (A") (A") (A') (A') (A') (A') (A") (A')
                 (A') (A") (A') (A") (A') (A') (A') (A') (A') (A')
                 (A") (A') (A') (A') (A') (A") (A') (A') (A') (A")
                 (A') (A') (A') (A') (A') (A') (A') (A') (A") (A")
                 (A') (A') (A') (A') (A') (A') (A') (A') (A') (A')
                 (A") (A') (A') (A') (A') (A') (A') (A') (A') (A')
                 (A') (A') (A') (A') (A') (A') (A") (A') (A') (A')
                 (A') (A") (A') (A") (A") (A') (A") (A') (A') (A")
                 (A') (A") (A') (A') (A") (A') (A') (A") (A') (A")
                 (A') (A") (A") (A") (A") (A") (A') (A') (A') (A")
                 (A") (A") (A") (A') (A") (A") (A') (A') (A') (A")
                 (A') (A') (A") (A') (A") (A") (A') (A') (A") (A")
                 (A') (A') (A') (A") (A') (A') (A') (A') (A') (A")
                 (A') (A") (A') (A') (A') (A') (A") (A') (A') (A")
                 (A') (A') (A") (A') (A') (A') (A") (A") (A') (A")
                 (A') (A') (A") (A') (A') (A') (A') (A") (A') (A')
                 (A') (A") (A') (A') (A") (A') (A') (A') (A') (A')
                 (A") (A") (A') (A') (A') (A") (A') (A') (A') (A')
                 (A') (A') (A") (A") (A') (A') (A") (A') (A") (A")
                 (A') (A') (A") (A") (A") (A') (A") (A") (A') (A")
                 (A") (A') (A') (A") (A') (A') (A") (A') (A') (A")
                 (A') (A") (A") (A") (A') (A") (A') (A') (A') (A')
                 (A') (A') (A") (A') (A") (A') (A') (A') (A') (A")
                 (A") (A') (A") (A') (A') (A') (A') (A') (A') (A')
                 (A') (A') (A') (A') (A') (A') (A') (A') (A') (A')
                 (A") (A') (A") (A') (A') (A") (A') (A') (A') (A')
                 (A') (A') (A') (A') (A') (A') (A') (A') (A') (A')
                 (A') (A') (A') (A') (A') (A') (A') (A') (A') (A')
                 (A') (A') (A') (A') (A') (A') (A') (A') (A') (A')
                 (A') (A') (A') (A') (A') (A') (A') (A') (A') (A')
                 (A') (A') (A') (A')
 Beta  Orbitals:
       Occupied  (A') (A') (A') (A') (A') (A") (A') (A') (A') (A")
                 (A') (A') (A') (A') (A') (A') (A') (A') (A') (A')
                 (A') (A') (A') (A') (A') (A') (A') (A') (A') (A')
                 (A') (A') (A') (A') (A') (A') (A') (A') (A') (A')
                 (A') (A') (A') (A') (A") (A') (A') (A") (A') (A')
                 (A') (A') (A') (A') (A') (A') (A') (A') (A') (A')
                 (A') (A') (A') (A') (A') (A') (A') (A') (A') (A')
                 (A') (A') (A') (A') (A') (A') (A') (A') (A') (A')
                 (A') (A') (A') (A') (A') (A') (A') (A") (A') (A')
                 (A') (A') (A') (A') (A") (A") (A') (A") (A') (A")
                 (A') (A") (A") (A") (A") (A') (A") (A") (A") (A')
                 (A') (A") (A") (A') (A") (A') (A") (A') (A") (A')
                 (A")
       Virtual   (A') (A") (A") (A') (A") (A") (A") (A') (A") (A")
                 (A') (A') (A") (A') (A') (A") (A") (A') (A') (A")
                 (A") (A') (A') (A") (A') (A") (A') (A') (A') (A")
                 (A') (A') (A") (A') (A') (A") (A') (A') (A') (A')
                 (A") (A') (A') (A') (A') (A') (A') (A') (A') (A')
                 (A') (A') (A') (A") (A') (A') (A') (A') (A") (A')
                 (A') (A') (A') (A') (A') (A') (A') (A') (A') (A')
                 (A') (A') (A') (A') (A') (A') (A') (A') (A') (A')
                 (A') (A") (A') (A') (A") (A') (A") (A') (A') (A")
                 (A') (A') (A') (A") (A') (A') (A") (A") (A") (A')
                 (A') (A') (A') (A') (A") (A") (A') (A") (A') (A")
                 (A') (A") (A') (A") (A') (A") (A") (A") (A') (A')
                 (A") (A") (A') (A") (A") (A') (A') (A') (A') (A")
                 (A') (A') (A") (A') (A") (A') (A') (A') (A') (A')
                 (A') (A") (A') (A') (A') (A') (A") (A') (A') (A')
                 (A") (A') (A') (A') (A') (A') (A') (A') (A') (A")
                 (A") (A') (A') (A') (A') (A') (A') (A') (A') (A')
                 (A') (A") (A') (A') (A') (A') (A') (A') (A') (A')
                 (A') (A') (A') (A') (A') (A') (A') (A") (A') (A')
                 (A') (A') (A") (A') (A") (A") (A') (A") (A') (A')
                 (A") (A') (A") (A') (A') (A") (A') (A') (A") (A')
                 (A") (A') (A") (A") (A") (A") (A") (A') (A') (A')
                 (A") (A") (A") (A") (A') (A") (A") (A') (A') (A')
                 (A") (A') (A') (A") (A') (A") (A") (A') (A') (A")
                 (A") (A') (A') (A') (A") (A') (A') (A') (A') (A')
                 (A") (A') (A") (A') (A') (A') (A') (A") (A') (A')
                 (A") (A') (A') (A") (A') (A') (A') (A") (A") (A')
                 (A") (A') (A') (A") (A') (A') (A') (A') (A") (A')
                 (A') (A') (A") (A') (A') (A") (A') (A') (A') (A')
                 (A') (A") (A") (A') (A') (A') (A") (A') (A') (A')
                 (A') (A') (A') (A") (A") (A') (A') (A") (A') (A")
                 (A") (A') (A') (A") (A") (A") (A') (A") (A") (A')
                 (A") (A") (A') (A') (A") (A') (A') (A") (A') (A')
                 (A") (A') (A") (A") (A") (A') (A") (A') (A') (A')
                 (A') (A') (A') (A") (A') (A") (A') (A') (A') (A')
                 (A") (A") (A') (A") (A') (A') (A') (A') (A') (A')
                 (A') (A') (A') (A') (A') (A') (A') (A') (A') (A')
                 (A') (A") (A') (A") (A') (A') (A") (A') (A') (A')
                 (A') (A') (A') (A') (A') (A') (A') (A') (A') (A')
                 (A') (A') (A') (A') (A') (A') (A') (A') (A') (A')
                 (A') (A') (A') (A') (A') (A') (A') (A') (A') (A')
                 (A') (A') (A') (A') (A') (A') (A') (A') (A') (A')
                 (A') (A') (A') (A') (A')
 The electronic state of the initial guess is 2-A'.
 Initial guess <Sx>= 0.0000 <Sy>= 0.0000 <Sz>= 0.5000 <S**2>= 0.7500 S= 0.5000
 Requested convergence on RMS density matrix=1.00D-08 within  32 cycles.
 Requested convergence on MAX density matrix=1.00D-06.
 Requested convergence on             energy=1.00D-06.
 No special actions if energy rises.
 EnCoef did     5 forward-backward iterations
 EnCoef did   100 forward-backward iterations
 EnCoef did   100 forward-backward iterations
 EnCoef did   100 forward-backward iterations
 EnCoef did   100 forward-backward iterations
 EnCoef did   100 forward-backward iterations
 EnCoef did     7 forward-backward iterations
 EnCoef did   100 forward-backward iterations
 EnCoef did   100 forward-backward iterations
 EnCoef did    10 forward-backward iterations
 EnCoef did     7 forward-backward iterations
 EnCoef did   100 forward-backward iterations
 EnCoef did   100 forward-backward iterations
 EnCoef did     5 forward-backward iterations
 EnCoef did     2 forward-backward iterations
 Restarting incremental Fock formation.
 >>>>>>>>>> Convergence criterion not met.
 SCF Done:  E(UB3LYP) =  -3576.81430002     A.U. after   33 cycles
            NFock= 32  Conv=0.59D-04     -V/T= 2.0051
 <Sx>= 0.0000 <Sy>= 0.0000 <Sz>= 0.5000 <S**2>= 3.4306 S= 1.4185
 <L.S>=  0.00000000000    
 Annihilation of the first spin contaminant:
 S**2 before annihilation     3.4306,   after     8.6616
 LinEq1:  Iter=  0 NonCon=     1 RMS=3.22D-05 Max=5.42D-03 NDo=     1
 AX will form     1 AO Fock derivatives at one time.
 LinEq1:  Iter=  1 NonCon=     1 RMS=1.08D-04 Max=2.57D-02 NDo=     1
 LinEq1:  Iter=  2 NonCon=     1 RMS=1.01D-04 Max=7.73D-03 NDo=     1
 LinEq1:  Iter=  3 NonCon=     1 RMS=8.56D-05 Max=6.80D-03 NDo=     1
 LinEq1:  Iter=  4 NonCon=     1 RMS=1.47D-04 Max=2.10D-02 NDo=     1
 LinEq1:  Iter=  5 NonCon=     1 RMS=2.33D-04 Max=2.03D-02 NDo=     1
 LinEq1:  Iter=  6 NonCon=     1 RMS=2.06D-04 Max=1.47D-02 NDo=     1
 LinEq1:  Iter=  7 NonCon=     1 RMS=4.10D-04 Max=2.28D-02 NDo=     1
 LinEq1:  Iter=  8 NonCon=     1 RMS=5.49D-04 Max=3.50D-02 NDo=     1
 LinEq1:  Iter=  9 NonCon=     1 RMS=6.62D-04 Max=4.38D-02 NDo=     1
 LinEq1:  Iter= 10 NonCon=     1 RMS=1.07D-03 Max=8.03D-02 NDo=     1
 LinEq1:  Iter= 11 NonCon=     1 RMS=1.30D-03 Max=8.66D-02 NDo=     1
 LinEq1:  Iter= 12 NonCon=     1 RMS=1.47D-03 Max=7.94D-02 NDo=     1
 LinEq1:  Iter= 13 NonCon=     1 RMS=1.45D-03 Max=8.46D-02 NDo=     1
 LinEq1:  Iter= 14 NonCon=     1 RMS=1.38D-03 Max=6.46D-02 NDo=     1
 LinEq1:  Iter= 15 NonCon=     1 RMS=1.35D-03 Max=6.35D-02 NDo=     1
 LinEq1:  Iter= 16 NonCon=     1 RMS=1.20D-03 Max=6.77D-02 NDo=     1
 LinEq1:  Iter= 17 NonCon=     1 RMS=1.12D-03 Max=7.03D-02 NDo=     1
 LinEq1:  Iter= 18 NonCon=     1 RMS=1.10D-03 Max=6.44D-02 NDo=     1
 LinEq1:  Iter= 19 NonCon=     1 RMS=9.43D-04 Max=5.26D-02 NDo=     1
 LinEq1:  Iter= 20 NonCon=     1 RMS=1.06D-03 Max=9.86D-02 NDo=     1
 LinEq1:  Iter= 21 NonCon=     1 RMS=1.11D-03 Max=5.29D-02 NDo=     1
 LinEq1:  Iter= 22 NonCon=     1 RMS=9.54D-04 Max=6.46D-02 NDo=     1
 LinEq1:  Iter= 23 NonCon=     1 RMS=7.10D-04 Max=6.48D-02 NDo=     1
 LinEq1:  Iter= 24 NonCon=     1 RMS=6.28D-04 Max=6.47D-02 NDo=     1
 LinEq1:  Iter= 25 NonCon=     1 RMS=5.83D-04 Max=4.84D-02 NDo=     1
 LinEq1:  Iter= 26 NonCon=     1 RMS=4.68D-04 Max=5.15D-02 NDo=     1
 LinEq1:  Iter= 27 NonCon=     1 RMS=4.43D-04 Max=3.22D-02 NDo=     1
 LinEq1:  Iter= 28 NonCon=     1 RMS=2.32D-04 Max=2.09D-02 NDo=     1
 LinEq1:  Iter= 29 NonCon=     1 RMS=1.60D-04 Max=8.32D-03 NDo=     1
 LinEq1:  Iter= 30 NonCon=     1 RMS=1.27D-04 Max=8.36D-03 NDo=     1
 LinEq1:  Iter= 31 NonCon=     1 RMS=8.03D-05 Max=6.16D-03 NDo=     1
 LinEq1:  Iter= 32 NonCon=     1 RMS=5.11D-05 Max=5.96D-03 NDo=     1
 LinEq1:  Iter= 33 NonCon=     1 RMS=4.40D-05 Max=3.29D-03 NDo=     1
 LinEq1:  Iter= 34 NonCon=     1 RMS=2.44D-05 Max=2.00D-03 NDo=     1
 LinEq1:  Iter= 35 NonCon=     1 RMS=1.88D-05 Max=1.24D-03 NDo=     1
 LinEq1:  Iter= 36 NonCon=     1 RMS=1.27D-05 Max=7.03D-04 NDo=     1
 LinEq1:  Iter= 37 NonCon=     1 RMS=7.05D-06 Max=3.45D-04 NDo=     1
 LinEq1:  Iter= 38 NonCon=     1 RMS=5.65D-06 Max=2.98D-04 NDo=     1
 LinEq1:  Iter= 39 NonCon=     1 RMS=3.20D-06 Max=1.89D-04 NDo=     1
 LinEq1:  Iter= 40 NonCon=     1 RMS=2.77D-06 Max=1.43D-04 NDo=     1
 LinEq1:  Iter= 41 NonCon=     1 RMS=1.58D-06 Max=9.91D-05 NDo=     1
 LinEq1:  Iter= 42 NonCon=     1 RMS=7.96D-07 Max=3.41D-05 NDo=     1
 LinEq1:  Iter= 43 NonCon=     1 RMS=6.72D-07 Max=3.77D-05 NDo=     1
 LinEq1:  Iter= 44 NonCon=     1 RMS=3.67D-07 Max=2.09D-05 NDo=     1
 LinEq1:  Iter= 45 NonCon=     1 RMS=2.81D-07 Max=1.24D-05 NDo=     1
 LinEq1:  Iter= 46 NonCon=     1 RMS=1.88D-07 Max=9.76D-06 NDo=     1
 LinEq1:  Iter= 47 NonCon=     1 RMS=9.24D-08 Max=4.62D-06 NDo=     1
 LinEq1:  Iter= 48 NonCon=     1 RMS=7.03D-08 Max=3.30D-06 NDo=     1
 LinEq1:  Iter= 49 NonCon=     1 RMS=4.08D-08 Max=1.81D-06 NDo=     1
 LinEq1:  Iter= 50 NonCon=     1 RMS=2.79D-08 Max=1.01D-06 NDo=     1
 LinEq1:  Iter= 51 NonCon=     1 RMS=1.94D-08 Max=7.94D-07 NDo=     1
 LinEq1:  Iter= 52 NonCon=     1 RMS=1.03D-08 Max=4.02D-07 NDo=     1
 LinEq1:  Iter= 53 NonCon=     1 RMS=8.43D-09 Max=4.15D-07 NDo=     1
 LinEq1:  Iter= 54 NonCon=     1 RMS=4.11D-09 Max=2.16D-07 NDo=     1
 LinEq1:  Iter= 55 NonCon=     0 RMS=3.04D-09 Max=1.44D-07 NDo=     1
 Linear equations converged to 1.878D-08 1.878D-07 after    55 iterations.
     Minimum is close to point  2 DX= -3.11D-02 DF= -2.49D-07 DXR=  3.21D-02 DFR=  1.03D-03 which will be used.
 LinEq1:  Iter=  0 NonCon=     1 RMS=7.59D-05 Max=1.00D-02 NDo=     1
 LinEq1:  Iter=  1 NonCon=     1 RMS=1.73D-04 Max=2.80D-02 NDo=     1
 LinEq1:  Iter=  2 NonCon=     1 RMS=2.27D-04 Max=2.46D-02 NDo=     1
 LinEq1:  Iter=  3 NonCon=     1 RMS=2.78D-04 Max=3.75D-02 NDo=     1
 LinEq1:  Iter=  4 NonCon=     1 RMS=5.97D-04 Max=7.60D-02 NDo=     1
 LinEq1:  Iter=  5 NonCon=     1 RMS=1.27D-03 Max=1.48D-01 NDo=     1
 LinEq1:  Iter=  6 NonCon=     1 RMS=1.71D-03 Max=1.27D-01 NDo=     1
 LinEq1:  Iter=  7 NonCon=     1 RMS=2.22D-03 Max=1.98D-01 NDo=     1
 LinEq1:  Iter=  8 NonCon=     1 RMS=3.11D-03 Max=2.54D-01 NDo=     1
 LinEq1:  Iter=  9 NonCon=     1 RMS=3.65D-03 Max=2.75D-01 NDo=     1
 LinEq1:  Iter= 10 NonCon=     1 RMS=4.74D-03 Max=2.99D-01 NDo=     1
 LinEq1:  Iter= 11 NonCon=     1 RMS=6.40D-03 Max=4.91D-01 NDo=     1
 LinEq1:  Iter= 12 NonCon=     1 RMS=5.43D-03 Max=2.53D-01 NDo=     1
 LinEq1:  Iter= 13 NonCon=     1 RMS=5.95D-03 Max=3.02D-01 NDo=     1
 LinEq1:  Iter= 14 NonCon=     1 RMS=6.43D-03 Max=2.79D-01 NDo=     1
 LinEq1:  Iter= 15 NonCon=     1 RMS=6.44D-03 Max=3.24D-01 NDo=     1
 LinEq1:  Iter= 16 NonCon=     1 RMS=6.35D-03 Max=4.16D-01 NDo=     1
 LinEq1:  Iter= 17 NonCon=     1 RMS=7.17D-03 Max=5.01D-01 NDo=     1
 LinEq1:  Iter= 18 NonCon=     1 RMS=6.30D-03 Max=5.16D-01 NDo=     1
 LinEq1:  Iter= 19 NonCon=     1 RMS=7.24D-03 Max=4.08D-01 NDo=     1
 LinEq1:  Iter= 20 NonCon=     1 RMS=7.82D-03 Max=5.31D-01 NDo=     1
 LinEq1:  Iter= 21 NonCon=     1 RMS=5.18D-03 Max=2.77D-01 NDo=     1
 LinEq1:  Iter= 22 NonCon=     1 RMS=4.82D-03 Max=3.25D-01 NDo=     1
 LinEq1:  Iter= 23 NonCon=     1 RMS=4.36D-03 Max=2.62D-01 NDo=     1
 LinEq1:  Iter= 24 NonCon=     1 RMS=3.03D-03 Max=2.11D-01 NDo=     1
 LinEq1:  Iter= 25 NonCon=     1 RMS=2.94D-03 Max=1.97D-01 NDo=     1
 LinEq1:  Iter= 26 NonCon=     1 RMS=1.84D-03 Max=1.02D-01 NDo=     1
 LinEq1:  Iter= 27 NonCon=     1 RMS=1.21D-03 Max=7.75D-02 NDo=     1
 LinEq1:  Iter= 28 NonCon=     1 RMS=1.04D-03 Max=5.92D-02 NDo=     1
 LinEq1:  Iter= 29 NonCon=     1 RMS=7.15D-04 Max=4.63D-02 NDo=     1
 LinEq1:  Iter= 30 NonCon=     1 RMS=6.92D-04 Max=4.34D-02 NDo=     1
 LinEq1:  Iter= 31 NonCon=     1 RMS=5.01D-04 Max=3.17D-02 NDo=     1
 LinEq1:  Iter= 32 NonCon=     1 RMS=2.78D-04 Max=1.32D-02 NDo=     1
 LinEq1:  Iter= 33 NonCon=     1 RMS=2.26D-04 Max=1.43D-02 NDo=     1
 LinEq1:  Iter= 34 NonCon=     1 RMS=1.31D-04 Max=1.09D-02 NDo=     1
 LinEq1:  Iter= 35 NonCon=     1 RMS=1.01D-04 Max=8.77D-03 NDo=     1
 LinEq1:  Iter= 36 NonCon=     1 RMS=7.07D-05 Max=6.73D-03 NDo=     1
 LinEq1:  Iter= 37 NonCon=     1 RMS=4.45D-05 Max=2.92D-03 NDo=     1
 LinEq1:  Iter= 38 NonCon=     1 RMS=3.65D-05 Max=2.03D-03 NDo=     1
 LinEq1:  Iter= 39 NonCon=     1 RMS=2.06D-05 Max=1.37D-03 NDo=     1
 LinEq1:  Iter= 40 NonCon=     1 RMS=1.36D-05 Max=7.50D-04 NDo=     1
 LinEq1:  Iter= 41 NonCon=     1 RMS=1.08D-05 Max=5.81D-04 NDo=     1
 LinEq1:  Iter= 42 NonCon=     1 RMS=4.67D-06 Max=2.73D-04 NDo=     1
 LinEq1:  Iter= 43 NonCon=     1 RMS=4.03D-06 Max=1.70D-04 NDo=     1
 LinEq1:  Iter= 44 NonCon=     1 RMS=2.65D-06 Max=1.57D-04 NDo=     1
 LinEq1:  Iter= 45 NonCon=     1 RMS=1.51D-06 Max=9.66D-05 NDo=     1
 LinEq1:  Iter= 46 NonCon=     1 RMS=1.41D-06 Max=7.79D-05 NDo=     1
 LinEq1:  Iter= 47 NonCon=     1 RMS=7.62D-07 Max=3.89D-05 NDo=     1
 LinEq1:  Iter= 48 NonCon=     1 RMS=5.88D-07 Max=2.78D-05 NDo=     1
 LinEq1:  Iter= 49 NonCon=     1 RMS=3.36D-07 Max=1.68D-05 NDo=     1
 LinEq1:  Iter= 50 NonCon=     1 RMS=1.67D-07 Max=8.00D-06 NDo=     1
 LinEq1:  Iter= 51 NonCon=     1 RMS=1.23D-07 Max=6.82D-06 NDo=     1
 LinEq1:  Iter= 52 NonCon=     1 RMS=6.11D-08 Max=3.46D-06 NDo=     1
 LinEq1:  Iter= 53 NonCon=     1 RMS=4.37D-08 Max=1.88D-06 NDo=     1
 LinEq1:  Iter= 54 NonCon=     1 RMS=3.21D-08 Max=1.68D-06 NDo=     1
 LinEq1:  Iter= 55 NonCon=     1 RMS=1.49D-08 Max=6.68D-07 NDo=     1
 LinEq1:  Iter= 56 NonCon=     1 RMS=1.20D-08 Max=5.71D-07 NDo=     1
 LinEq1:  Iter= 57 NonCon=     1 RMS=7.45D-09 Max=3.52D-07 NDo=     1
 LinEq1:  Iter= 58 NonCon=     0 RMS=4.67D-09 Max=2.09D-07 NDo=     1
 Linear equations converged to 3.212D-08 3.212D-07 after    58 iterations.
     Minimum is close to point  3 DX=  1.14D-01 DF= -4.57D-06 DXR=  7.53D-02 DFR=  1.48D-02 which will be used.
 Gradient too large for Newton-Raphson -- use scaled steepest descent instead.
     Accept linear search using points  1 and  2.
 LinEq1:  Iter=  0 NonCon=     1 RMS=1.25D-04 Max=3.07D-02 NDo=     1
 LinEq1:  Iter=  1 NonCon=     1 RMS=1.70D-04 Max=2.25D-02 NDo=     1
 LinEq1:  Iter=  2 NonCon=     1 RMS=2.12D-04 Max=1.35D-02 NDo=     1
 LinEq1:  Iter=  3 NonCon=     1 RMS=4.87D-04 Max=4.18D-02 NDo=     1
 LinEq1:  Iter=  4 NonCon=     1 RMS=7.45D-04 Max=6.33D-02 NDo=     1
 LinEq1:  Iter=  5 NonCon=     1 RMS=8.55D-04 Max=7.45D-02 NDo=     1
 LinEq1:  Iter=  6 NonCon=     1 RMS=1.26D-03 Max=1.20D-01 NDo=     1
 LinEq1:  Iter=  7 NonCon=     1 RMS=3.18D-03 Max=2.46D-01 NDo=     1
 LinEq1:  Iter=  8 NonCon=     1 RMS=3.42D-03 Max=2.80D-01 NDo=     1
 LinEq1:  Iter=  9 NonCon=     1 RMS=5.91D-03 Max=4.80D-01 NDo=     1
 LinEq1:  Iter= 10 NonCon=     1 RMS=8.80D-03 Max=7.59D-01 NDo=     1
 LinEq1:  Iter= 11 NonCon=     1 RMS=9.35D-03 Max=4.91D-01 NDo=     1
 LinEq1:  Iter= 12 NonCon=     1 RMS=1.20D-02 Max=8.30D-01 NDo=     1
 LinEq1:  Iter= 13 NonCon=     1 RMS=1.15D-02 Max=6.63D-01 NDo=     1
 LinEq1:  Iter= 14 NonCon=     1 RMS=1.40D-02 Max=9.03D-01 NDo=     1
 LinEq1:  Iter= 15 NonCon=     1 RMS=9.82D-03 Max=7.58D-01 NDo=     1
 LinEq1:  Iter= 16 NonCon=     1 RMS=1.22D-02 Max=1.06D+00 NDo=     1
 LinEq1:  Iter= 17 NonCon=     1 RMS=1.02D-02 Max=7.53D-01 NDo=     1
 LinEq1:  Iter= 18 NonCon=     1 RMS=1.08D-02 Max=7.80D-01 NDo=     1
 LinEq1:  Iter= 19 NonCon=     1 RMS=1.22D-02 Max=6.59D-01 NDo=     1
 LinEq1:  Iter= 20 NonCon=     1 RMS=1.25D-02 Max=7.75D-01 NDo=     1
 LinEq1:  Iter= 21 NonCon=     1 RMS=1.02D-02 Max=1.33D+00 NDo=     1
 LinEq1:  Iter= 22 NonCon=     1 RMS=9.36D-03 Max=7.97D-01 NDo=     1
 LinEq1:  Iter= 23 NonCon=     1 RMS=6.96D-03 Max=6.61D-01 NDo=     1
 LinEq1:  Iter= 24 NonCon=     1 RMS=6.52D-03 Max=5.46D-01 NDo=     1
 LinEq1:  Iter= 25 NonCon=     1 RMS=5.54D-03 Max=4.76D-01 NDo=     1
 LinEq1:  Iter= 26 NonCon=     1 RMS=3.66D-03 Max=3.27D-01 NDo=     1
 LinEq1:  Iter= 27 NonCon=     1 RMS=3.27D-03 Max=2.57D-01 NDo=     1
 LinEq1:  Iter= 28 NonCon=     1 RMS=2.34D-03 Max=1.81D-01 NDo=     1
 LinEq1:  Iter= 29 NonCon=     1 RMS=1.60D-03 Max=1.18D-01 NDo=     1
 LinEq1:  Iter= 30 NonCon=     1 RMS=1.36D-03 Max=9.82D-02 NDo=     1
 LinEq1:  Iter= 31 NonCon=     1 RMS=8.07D-04 Max=5.30D-02 NDo=     1
 LinEq1:  Iter= 32 NonCon=     1 RMS=4.93D-04 Max=2.49D-02 NDo=     1
 LinEq1:  Iter= 33 NonCon=     1 RMS=4.12D-04 Max=2.21D-02 NDo=     1
 LinEq1:  Iter= 34 NonCon=     1 RMS=2.02D-04 Max=1.01D-02 NDo=     1
 LinEq1:  Iter= 35 NonCon=     1 RMS=1.70D-04 Max=9.20D-03 NDo=     1
 LinEq1:  Iter= 36 NonCon=     1 RMS=1.06D-04 Max=6.34D-03 NDo=     1
 LinEq1:  Iter= 37 NonCon=     1 RMS=6.16D-05 Max=2.98D-03 NDo=     1
 LinEq1:  Iter= 38 NonCon=     1 RMS=4.49D-05 Max=2.91D-03 NDo=     1
 LinEq1:  Iter= 39 NonCon=     1 RMS=3.15D-05 Max=2.08D-03 NDo=     1
 LinEq1:  Iter= 40 NonCon=     1 RMS=2.42D-05 Max=1.42D-03 NDo=     1
 LinEq1:  Iter= 41 NonCon=     1 RMS=1.73D-05 Max=9.19D-04 NDo=     1
 LinEq1:  Iter= 42 NonCon=     1 RMS=9.38D-06 Max=4.36D-04 NDo=     1
 LinEq1:  Iter= 43 NonCon=     1 RMS=7.14D-06 Max=3.82D-04 NDo=     1
 LinEq1:  Iter= 44 NonCon=     1 RMS=4.68D-06 Max=1.85D-04 NDo=     1
 LinEq1:  Iter= 45 NonCon=     1 RMS=3.14D-06 Max=1.47D-04 NDo=     1
 LinEq1:  Iter= 46 NonCon=     1 RMS=2.70D-06 Max=1.76D-04 NDo=     1
 LinEq1:  Iter= 47 NonCon=     1 RMS=1.35D-06 Max=6.70D-05 NDo=     1
 LinEq1:  Iter= 48 NonCon=     1 RMS=9.89D-07 Max=4.60D-05 NDo=     1
 LinEq1:  Iter= 49 NonCon=     1 RMS=8.50D-07 Max=5.39D-05 NDo=     1
 LinEq1:  Iter= 50 NonCon=     1 RMS=4.28D-07 Max=3.13D-05 NDo=     1
 LinEq1:  Iter= 51 NonCon=     1 RMS=2.88D-07 Max=1.09D-05 NDo=     1
 LinEq1:  Iter= 52 NonCon=     1 RMS=1.71D-07 Max=8.39D-06 NDo=     1
 LinEq1:  Iter= 53 NonCon=     1 RMS=9.40D-08 Max=4.44D-06 NDo=     1
 LinEq1:  Iter= 54 NonCon=     1 RMS=7.23D-08 Max=3.22D-06 NDo=     1
 LinEq1:  Iter= 55 NonCon=     1 RMS=3.63D-08 Max=1.57D-06 NDo=     1
 LinEq1:  Iter= 56 NonCon=     1 RMS=2.53D-08 Max=1.03D-06 NDo=     1
 LinEq1:  Iter= 57 NonCon=     1 RMS=1.42D-08 Max=4.92D-07 NDo=     1
 LinEq1:  Iter= 58 NonCon=     0 RMS=6.32D-09 Max=2.14D-07 NDo=     1
 Linear equations converged to 3.212D-08 3.212D-07 after    58 iterations.
 Incorrect curvature in search direction -- initial direction reversed.
 Gradient too large for Newton-Raphson -- use scaled steepest descent instead.
 Gradient too large for Newton-Raphson -- use scaled steepest descent instead.
 Gradient too large for Newton-Raphson -- use scaled steepest descent instead.
     Accept linear search using points  1 and  2.
 LinEq1:  Iter=  0 NonCon=     1 RMS=1.77D-04 Max=4.61D-02 NDo=     1
 LinEq1:  Iter=  1 NonCon=     1 RMS=1.52D-04 Max=1.48D-02 NDo=     1
 LinEq1:  Iter=  2 NonCon=     1 RMS=2.89D-04 Max=2.79D-02 NDo=     1
 LinEq1:  Iter=  3 NonCon=     1 RMS=5.82D-04 Max=6.05D-02 NDo=     1
 LinEq1:  Iter=  4 NonCon=     1 RMS=6.06D-04 Max=5.10D-02 NDo=     1
 LinEq1:  Iter=  5 NonCon=     1 RMS=1.12D-03 Max=1.22D-01 NDo=     1
 LinEq1:  Iter=  6 NonCon=     1 RMS=1.46D-03 Max=1.07D-01 NDo=     1
 LinEq1:  Iter=  7 NonCon=     1 RMS=1.61D-03 Max=1.69D-01 NDo=     1
 LinEq1:  Iter=  8 NonCon=     1 RMS=1.92D-03 Max=1.43D-01 NDo=     1
 LinEq1:  Iter=  9 NonCon=     1 RMS=2.69D-03 Max=2.24D-01 NDo=     1
 LinEq1:  Iter= 10 NonCon=     1 RMS=3.57D-03 Max=2.17D-01 NDo=     1
 LinEq1:  Iter= 11 NonCon=     1 RMS=4.52D-03 Max=2.74D-01 NDo=     1
 LinEq1:  Iter= 12 NonCon=     1 RMS=5.29D-03 Max=2.86D-01 NDo=     1
 LinEq1:  Iter= 13 NonCon=     1 RMS=5.30D-03 Max=3.15D-01 NDo=     1
 LinEq1:  Iter= 14 NonCon=     1 RMS=4.93D-03 Max=3.58D-01 NDo=     1
 LinEq1:  Iter= 15 NonCon=     1 RMS=4.19D-03 Max=3.02D-01 NDo=     1
 LinEq1:  Iter= 16 NonCon=     1 RMS=4.35D-03 Max=2.60D-01 NDo=     1
 LinEq1:  Iter= 17 NonCon=     1 RMS=5.00D-03 Max=3.56D-01 NDo=     1
 LinEq1:  Iter= 18 NonCon=     1 RMS=5.56D-03 Max=4.41D-01 NDo=     1
 LinEq1:  Iter= 19 NonCon=     1 RMS=4.25D-03 Max=2.20D-01 NDo=     1
 LinEq1:  Iter= 20 NonCon=     1 RMS=3.98D-03 Max=1.84D-01 NDo=     1
 LinEq1:  Iter= 21 NonCon=     1 RMS=3.43D-03 Max=2.15D-01 NDo=     1
 LinEq1:  Iter= 22 NonCon=     1 RMS=3.10D-03 Max=2.05D-01 NDo=     1
 LinEq1:  Iter= 23 NonCon=     1 RMS=2.90D-03 Max=2.94D-01 NDo=     1
 LinEq1:  Iter= 24 NonCon=     1 RMS=3.10D-03 Max=2.94D-01 NDo=     1
 LinEq1:  Iter= 25 NonCon=     1 RMS=2.13D-03 Max=2.48D-01 NDo=     1
 LinEq1:  Iter= 26 NonCon=     1 RMS=1.37D-03 Max=1.03D-01 NDo=     1
 LinEq1:  Iter= 27 NonCon=     1 RMS=1.08D-03 Max=6.48D-02 NDo=     1
 LinEq1:  Iter= 28 NonCon=     1 RMS=6.34D-04 Max=4.33D-02 NDo=     1
 LinEq1:  Iter= 29 NonCon=     1 RMS=4.66D-04 Max=2.64D-02 NDo=     1
 LinEq1:  Iter= 30 NonCon=     1 RMS=4.53D-04 Max=3.68D-02 NDo=     1
 LinEq1:  Iter= 31 NonCon=     1 RMS=3.40D-04 Max=2.17D-02 NDo=     1
 LinEq1:  Iter= 32 NonCon=     1 RMS=3.34D-04 Max=2.48D-02 NDo=     1
 LinEq1:  Iter= 33 NonCon=     1 RMS=2.03D-04 Max=1.27D-02 NDo=     1
 LinEq1:  Iter= 34 NonCon=     1 RMS=1.35D-04 Max=4.53D-03 NDo=     1
 LinEq1:  Iter= 35 NonCon=     1 RMS=1.14D-04 Max=6.45D-03 NDo=     1
 LinEq1:  Iter= 36 NonCon=     1 RMS=5.53D-05 Max=2.82D-03 NDo=     1
 LinEq1:  Iter= 37 NonCon=     1 RMS=4.74D-05 Max=2.31D-03 NDo=     1
 LinEq1:  Iter= 38 NonCon=     1 RMS=2.48D-05 Max=1.43D-03 NDo=     1
 LinEq1:  Iter= 39 NonCon=     1 RMS=1.99D-05 Max=1.21D-03 NDo=     1
 LinEq1:  Iter= 40 NonCon=     1 RMS=1.58D-05 Max=1.25D-03 NDo=     1
 LinEq1:  Iter= 41 NonCon=     1 RMS=8.63D-06 Max=4.04D-04 NDo=     1
 LinEq1:  Iter= 42 NonCon=     1 RMS=7.19D-06 Max=3.80D-04 NDo=     1
 LinEq1:  Iter= 43 NonCon=     1 RMS=3.77D-06 Max=2.21D-04 NDo=     1
 LinEq1:  Iter= 44 NonCon=     1 RMS=2.92D-06 Max=1.60D-04 NDo=     1
 LinEq1:  Iter= 45 NonCon=     1 RMS=1.91D-06 Max=9.75D-05 NDo=     1
 LinEq1:  Iter= 46 NonCon=     1 RMS=9.49D-07 Max=4.38D-05 NDo=     1
 LinEq1:  Iter= 47 NonCon=     1 RMS=7.72D-07 Max=3.79D-05 NDo=     1
 LinEq1:  Iter= 48 NonCon=     1 RMS=4.52D-07 Max=2.82D-05 NDo=     1
 LinEq1:  Iter= 49 NonCon=     1 RMS=2.67D-07 Max=1.15D-05 NDo=     1
 LinEq1:  Iter= 50 NonCon=     1 RMS=2.02D-07 Max=7.86D-06 NDo=     1
 LinEq1:  Iter= 51 NonCon=     1 RMS=1.00D-07 Max=3.74D-06 NDo=     1
 LinEq1:  Iter= 52 NonCon=     1 RMS=7.93D-08 Max=4.31D-06 NDo=     1
 LinEq1:  Iter= 53 NonCon=     1 RMS=4.75D-08 Max=2.27D-06 NDo=     1
 LinEq1:  Iter= 54 NonCon=     1 RMS=2.56D-08 Max=1.32D-06 NDo=     1
 LinEq1:  Iter= 55 NonCon=     1 RMS=1.74D-08 Max=1.07D-06 NDo=     1
 LinEq1:  Iter= 56 NonCon=     1 RMS=1.02D-08 Max=9.06D-07 NDo=     1
 LinEq1:  Iter= 57 NonCon=     1 RMS=4.50D-09 Max=4.38D-07 NDo=     1
 LinEq1:  Iter= 58 NonCon=     0 RMS=3.05D-09 Max=1.80D-07 NDo=     1
 Linear equations converged to 3.212D-08 3.212D-07 after    58 iterations.
 Incorrect curvature in search direction -- initial direction reversed.
 Restarting incremental Fock formation.
 Gradient too large for Newton-Raphson -- use scaled steepest descent instead.
     Accept linear search using points  2 and  3.
 Gradient too large for Newton-Raphson -- use scaled steepest descent instead.
     Minimum is close to point  2 DX=  2.40D-03 DF= -1.10D-08 DXR=  7.93D-03 DFR=  6.29D-05 which will be used.
 Gradient too large for Newton-Raphson -- use scaled steepest descent instead.
     Accept linear search using points  1 and  2.
 LinEq1:  Iter=  0 NonCon=     1 RMS=2.92D-04 Max=7.33D-02 NDo=     1
 LinEq1:  Iter=  1 NonCon=     1 RMS=6.72D-04 Max=7.00D-02 NDo=     1
 LinEq1:  Iter=  2 NonCon=     1 RMS=6.12D-04 Max=6.40D-02 NDo=     1
 LinEq1:  Iter=  3 NonCon=     1 RMS=1.57D-03 Max=1.76D-01 NDo=     1
 LinEq1:  Iter=  4 NonCon=     1 RMS=8.43D-04 Max=5.96D-02 NDo=     1
 LinEq1:  Iter=  5 NonCon=     1 RMS=1.25D-03 Max=1.35D-01 NDo=     1
 LinEq1:  Iter=  6 NonCon=     1 RMS=2.08D-03 Max=2.94D-01 NDo=     1
 LinEq1:  Iter=  7 NonCon=     1 RMS=2.57D-03 Max=1.96D-01 NDo=     1
 LinEq1:  Iter=  8 NonCon=     1 RMS=2.94D-03 Max=3.37D-01 NDo=     1
 LinEq1:  Iter=  9 NonCon=     1 RMS=3.37D-03 Max=2.22D-01 NDo=     1
 LinEq1:  Iter= 10 NonCon=     1 RMS=4.00D-03 Max=2.59D-01 NDo=     1
 LinEq1:  Iter= 11 NonCon=     1 RMS=4.45D-03 Max=2.94D-01 NDo=     1
 LinEq1:  Iter= 12 NonCon=     1 RMS=5.10D-03 Max=3.51D-01 NDo=     1
 LinEq1:  Iter= 13 NonCon=     1 RMS=4.52D-03 Max=2.12D-01 NDo=     1
 LinEq1:  Iter= 14 NonCon=     1 RMS=4.59D-03 Max=4.35D-01 NDo=     1
 LinEq1:  Iter= 15 NonCon=     1 RMS=5.13D-03 Max=3.24D-01 NDo=     1
 LinEq1:  Iter= 16 NonCon=     1 RMS=5.18D-03 Max=3.69D-01 NDo=     1
 LinEq1:  Iter= 17 NonCon=     1 RMS=5.80D-03 Max=3.35D-01 NDo=     1
 LinEq1:  Iter= 18 NonCon=     1 RMS=6.43D-03 Max=4.13D-01 NDo=     1
 LinEq1:  Iter= 19 NonCon=     1 RMS=6.26D-03 Max=3.55D-01 NDo=     1
 LinEq1:  Iter= 20 NonCon=     1 RMS=6.43D-03 Max=5.83D-01 NDo=     1
 LinEq1:  Iter= 21 NonCon=     1 RMS=6.78D-03 Max=4.71D-01 NDo=     1
 LinEq1:  Iter= 22 NonCon=     1 RMS=7.00D-03 Max=6.93D-01 NDo=     1
 LinEq1:  Iter= 23 NonCon=     1 RMS=6.56D-03 Max=5.77D-01 NDo=     1
 LinEq1:  Iter= 24 NonCon=     1 RMS=5.86D-03 Max=4.24D-01 NDo=     1
 LinEq1:  Iter= 25 NonCon=     1 RMS=3.90D-03 Max=2.57D-01 NDo=     1
 LinEq1:  Iter= 26 NonCon=     1 RMS=3.41D-03 Max=1.91D-01 NDo=     1
 LinEq1:  Iter= 27 NonCon=     1 RMS=2.59D-03 Max=2.29D-01 NDo=     1
 LinEq1:  Iter= 28 NonCon=     1 RMS=2.60D-03 Max=1.66D-01 NDo=     1
 LinEq1:  Iter= 29 NonCon=     1 RMS=2.09D-03 Max=2.08D-01 NDo=     1
 LinEq1:  Iter= 30 NonCon=     1 RMS=1.26D-03 Max=9.96D-02 NDo=     1
 LinEq1:  Iter= 31 NonCon=     1 RMS=9.21D-04 Max=5.74D-02 NDo=     1
 LinEq1:  Iter= 32 NonCon=     1 RMS=6.50D-04 Max=3.78D-02 NDo=     1
 LinEq1:  Iter= 33 NonCon=     1 RMS=3.56D-04 Max=1.51D-02 NDo=     1
 LinEq1:  Iter= 34 NonCon=     1 RMS=3.20D-04 Max=2.29D-02 NDo=     1
[...]
    37  C(13)              0.00088       0.98940       0.35304       0.33003
    38  C(13)              0.00035       0.39897       0.14236       0.13308
    39  C(13)             -0.00959     -10.77572      -3.84504      -3.59439
    40  C(13)              0.01826      20.52552       7.32402       6.84658
    41  H(1)              -0.00037      -1.66384      -0.59370      -0.55500
    42  H(1)               0.00036       1.59576       0.56941       0.53229
    43  H(1)              -0.00027      -1.19293      -0.42567      -0.39792
    44  H(1)               0.00040       1.79133       0.63919       0.59752
 --------------------------------------------------------
       Center         ----  Spin Dipole Couplings  ----
                      3XX-RR        3YY-RR        3ZZ-RR
 --------------------------------------------------------
     1   Atom       -0.028370     -0.006502      0.034872
     2   Atom       -0.012442      0.022479     -0.010038
     3   Atom       -0.022224     -0.019434      0.041658
     4   Atom        0.004548      0.006041     -0.010589
     5   Atom       -0.017767     -0.014506      0.032273
     6   Atom        0.004172      0.009675     -0.013848
     7   Atom       -0.148103     -0.053575      0.201678
     8   Atom        0.008800     -0.018123      0.009323
     9   Atom        0.115026     -0.018243     -0.096783
    10   Atom        0.076465     -0.108446      0.031981
    11   Atom       -0.027145     -0.017840      0.044985
    12   Atom       -0.053601      0.037758      0.015843
    13   Atom       -0.083853      0.078626      0.005227
    14   Atom        0.102014     -0.163726      0.061713
    15   Atom       -0.003368      0.001691      0.001677
    16   Atom       -0.000073     -0.001953      0.002026
    17   Atom       -0.001460      0.000796      0.000664
    18   Atom       -0.002046      0.001717      0.000329
    19   Atom       -0.291346      1.388387     -1.097041
    20   Atom       -0.001671      0.002762     -0.001091
    21   Atom       -0.001725      0.003735     -0.002010
    22   Atom       -0.001091      0.002494     -0.001403
    23   Atom        0.001081      0.002483     -0.003563
    24   Atom       -0.006193      0.000513      0.005679
    25   Atom       -0.000524      0.007057     -0.006533
    26   Atom       -0.003848      0.007106     -0.003258
    27   Atom       -0.017777      0.033059     -0.015282
    28   Atom       -0.022529      0.018049      0.004480
    29   Atom        0.003259      0.005990     -0.009249
    30   Atom       -1.015966     -0.585370      1.601336
    31   Atom        0.050966      0.006488     -0.057454
    32   Atom        0.157248     -0.091687     -0.065561
    33   Atom       -0.032578      0.048084     -0.015506
    34   Atom        0.195379     -0.089925     -0.105454
    35   Atom        0.004550      0.012063     -0.016613
    36   Atom        0.001101     -0.007380      0.006279
    37   Atom        0.004408      0.008443     -0.012852
    38   Atom       -0.009025     -0.003550      0.012576
    39   Atom       -0.000479      0.009490     -0.009011
    40   Atom       -0.020368      0.006676      0.013692
    41   Atom        0.003952     -0.000875     -0.003077
    42   Atom       -0.000502      0.001153     -0.000652
    43   Atom       -0.001347      0.001298      0.000050
    44   Atom       -0.001345     -0.000137      0.001482
 --------------------------------------------------------
                        XY            XZ            YZ
 --------------------------------------------------------
     1   Atom        0.003790      0.000000     -0.000000
     2   Atom        0.007671     -0.000000      0.000000
     3   Atom       -0.016651     -0.000000     -0.000000
     4   Atom       -0.006912      0.000000      0.000000
     5   Atom       -0.000626      0.000000     -0.000000
     6   Atom        0.000091      0.000000      0.000000
     7   Atom        0.178853     -0.000000      0.000000
     8   Atom       -0.037195     -0.000000     -0.000000
     9   Atom        0.049443     -0.000000     -0.000000
    10   Atom        0.010147      0.000000     -0.000000
    11   Atom       -0.038087      0.000000      0.000000
    12   Atom        0.029557      0.000000     -0.000000
    13   Atom        0.059221     -0.000000      0.000000
    14   Atom        0.012960      0.000000     -0.000000
    15   Atom        0.002905     -0.000000      0.000000
    16   Atom       -0.002434     -0.000000     -0.000000
    17   Atom        0.001409     -0.000000     -0.000000
    18   Atom        0.000615      0.000000      0.000000
    19   Atom        0.252422      0.000000      0.000000
    20   Atom       -0.000681     -0.000000      0.000000
    21   Atom       -0.003101     -0.000000      0.000000
    22   Atom        0.000969     -0.000000      0.000000
    23   Atom        0.005077      0.000000      0.000000
    24   Atom       -0.001440      0.000000      0.000000
    25   Atom        0.000949      0.000000      0.000000
    26   Atom        0.007394      0.000000      0.000000
    27   Atom        0.009204      0.000000     -0.000000
    28   Atom       -0.008920     -0.000000      0.000000
    29   Atom       -0.001096     -0.000000      0.000000
    30   Atom       -0.528788      0.000000     -0.000000
    31   Atom        0.083163      0.000000      0.000000
    32   Atom        0.022269      0.000000     -0.000000
    33   Atom       -0.082027      0.000000     -0.000000
    34   Atom        0.146808      0.000000      0.000000
    35   Atom       -0.012145     -0.000000      0.000000
    36   Atom       -0.008787     -0.000000      0.000000
    37   Atom       -0.003411     -0.000000      0.000000
    38   Atom       -0.000770      0.000000      0.000000
    39   Atom        0.004000     -0.000000      0.000000
    40   Atom        0.003794     -0.000000      0.000000
    41   Atom       -0.001894      0.000000     -0.000000
    42   Atom       -0.001244      0.000000      0.000000
    43   Atom       -0.000778     -0.000000      0.000000
    44   Atom        0.001802     -0.000000      0.000000
 --------------------------------------------------------


 ---------------------------------------------------------------------------------
              Anisotropic Spin Dipole Couplings in Principal Axis System
 ---------------------------------------------------------------------------------

       Atom             a.u.   MegaHertz   Gauss  10(-4) cm-1        Axes

              Baa    -0.0290    -3.893    -1.389    -1.298  0.9861 -0.1661  0.0000
     1 C(13)  Bbb    -0.0059    -0.787    -0.281    -0.262  0.1661  0.9861  0.0000
              Bcc     0.0349     4.679     1.670     1.561  0.0000  0.0000  1.0000
 
              Baa    -0.0141    -1.886    -0.673    -0.629  0.9787 -0.2055  0.0000
     2 C(13)  Bbb    -0.0100    -1.347    -0.481    -0.449  0.0000  0.0000  1.0000
              Bcc     0.0241     3.233     1.154     1.078  0.2055  0.9787 -0.0000
 
              Baa    -0.0375    -5.037    -1.797    -1.680  0.7360  0.6769 -0.0000
     3 C(13)  Bbb    -0.0041    -0.553    -0.197    -0.184 -0.6769  0.7360  0.0000
              Bcc     0.0417     5.590     1.995     1.865  0.0000  0.0000  1.0000
 
              Baa    -0.0106    -1.421    -0.507    -0.474  0.0000  0.0000  1.0000
     4 C(13)  Bbb    -0.0017    -0.222    -0.079    -0.074  0.7441  0.6681  0.0000
              Bcc     0.0122     1.643     0.586     0.548 -0.6681  0.7441 -0.0000
 
              Baa    -0.0179    -2.400    -0.856    -0.800  0.9832  0.1823  0.0000
     5 C(13)  Bbb    -0.0144    -1.931    -0.689    -0.644 -0.1823  0.9832  0.0000
              Bcc     0.0323     4.331     1.545     1.445  0.0000  0.0000  1.0000
 
              Baa    -0.0138    -1.858    -0.663    -0.620  0.0000  0.0000  1.0000
     6 C(13)  Bbb     0.0042     0.560     0.200     0.187  0.9999 -0.0164  0.0000
              Bcc     0.0097     1.299     0.463     0.433  0.0164  0.9999 -0.0000
 
              Baa    -0.2858   -38.356   -13.686   -12.794  0.7923 -0.6101  0.0000
     7 C(13)  Bbb     0.0842    11.293     4.029     3.767  0.6101  0.7923 -0.0000
              Bcc     0.2017    27.063     9.657     9.027  0.0000  0.0000  1.0000
 
              Baa    -0.0442    -5.934    -2.117    -1.979  0.5743  0.8186 -0.0000
     8 C(13)  Bbb     0.0093     1.251     0.446     0.417  0.0000  0.0000  1.0000
              Bcc     0.0349     4.683     1.671     1.562  0.8186 -0.5743  0.0000
 
              Baa    -0.0968   -12.987    -4.634    -4.332  0.0000  0.0000  1.0000
     9 C(13)  Bbb    -0.0346    -4.641    -1.656    -1.548 -0.3138  0.9495  0.0000
              Bcc     0.1314    17.628     6.290     5.880  0.9495  0.3138 -0.0000
 
              Baa    -0.1090   -14.627    -5.219    -4.879 -0.0546  0.9985 -0.0000
    10 C(13)  Bbb     0.0320     4.292     1.531     1.432  0.0000  0.0000  1.0000
              Bcc     0.0770    10.335     3.688     3.447  0.9985  0.0546  0.0000
 
              Baa    -0.0609    -8.167    -2.914    -2.724  0.7487  0.6629 -0.0000
    11 C(13)  Bbb     0.0159     2.131     0.760     0.711 -0.6629  0.7487  0.0000
              Bcc     0.0450     6.037     2.154     2.014  0.0000  0.0000  1.0000
 
              Baa    -0.0623    -8.364    -2.985    -2.790  0.9591 -0.2832  0.0000
    12 C(13)  Bbb     0.0158     2.126     0.759     0.709  0.0000  0.0000  1.0000
              Bcc     0.0465     6.238     2.226     2.081  0.2832  0.9591 -0.0000
 
              Baa    -0.1031   -13.841    -4.939    -4.617  0.9508 -0.3098  0.0000
    13 C(13)  Bbb     0.0052     0.701     0.250     0.234  0.0000  0.0000  1.0000
              Bcc     0.0979    13.140     4.689     4.383  0.3098  0.9508 -0.0000
 
              Baa    -0.1644   -22.055    -7.870    -7.357 -0.0486  0.9988 -0.0000
    14 C(13)  Bbb     0.0617     8.281     2.955     2.762  0.0000  0.0000  1.0000
              Bcc     0.1026    13.774     4.915     4.594  0.9988  0.0486  0.0000
 
              Baa    -0.0047    -2.503    -0.893    -0.835  0.9101 -0.4144  0.0000
    15 H(1)   Bbb     0.0017     0.895     0.319     0.299  0.0000  0.0000  1.0000
              Bcc     0.0030     1.608     0.574     0.536  0.4144  0.9101  0.0000
 
              Baa    -0.0036    -1.933    -0.690    -0.645  0.5656  0.8247 -0.0000
    16 H(1)   Bbb     0.0016     0.851     0.304     0.284  0.8247 -0.5656 -0.0000
              Bcc     0.0020     1.081     0.386     0.361  0.0000  0.0000  1.0000
 
              Baa    -0.0021    -1.140    -0.407    -0.380  0.9014 -0.4329 -0.0000
    17 H(1)   Bbb     0.0007     0.354     0.126     0.118  0.0000  0.0000  1.0000
              Bcc     0.0015     0.786     0.280     0.262  0.4329  0.9014 -0.0000
 
              Baa    -0.0021    -1.144    -0.408    -0.382  0.9876 -0.1573 -0.0000
    18 H(1)   Bbb     0.0003     0.176     0.063     0.059  0.0000  0.0000  1.0000
              Bcc     0.0018     0.968     0.345     0.323  0.1573  0.9876 -0.0000
 
              Baa    -1.0970  -138.533   -49.432   -46.210  0.0000  0.0000  1.0000
    19 Co(59) Bbb    -0.3285   -41.478   -14.800   -13.835  0.9894 -0.1455  0.0000
              Bcc     1.4255   180.011    64.232    60.045  0.1455  0.9894 -0.0000
 
              Baa    -0.0018    -0.946    -0.338    -0.316  0.9889  0.1484  0.0000
    20 H(1)   Bbb    -0.0011    -0.582    -0.208    -0.194  0.0000  0.0000  1.0000
              Bcc     0.0029     1.528     0.545     0.510 -0.1484  0.9889 -0.0000
 
              Baa    -0.0031    -1.668    -0.595    -0.556  0.9112  0.4119  0.0000
    21 H(1)   Bbb    -0.0020    -1.072    -0.383    -0.358  0.0000  0.0000  1.0000
              Bcc     0.0051     2.740     0.978     0.914 -0.4119  0.9112 -0.0000
 
              Baa    -0.0014    -0.748    -0.267    -0.250  0.0000  0.0000  1.0000
    22 H(1)   Bbb    -0.0013    -0.713    -0.254    -0.238  0.9695 -0.2453  0.0000
              Bcc     0.0027     1.461     0.521     0.487  0.2453  0.9695 -0.0000
 
              Baa    -0.0036    -1.901    -0.678    -0.634  0.0000  0.0000  1.0000
    23 H(1)   Bbb    -0.0033    -1.784    -0.637    -0.595  0.7539 -0.6570 -0.0000
              Bcc     0.0069     3.685     1.315     1.229  0.6570  0.7539 -0.0000
 
              Baa    -0.0065    -0.871    -0.311    -0.290  0.9795  0.2015 -0.0000
    24 C(13)  Bbb     0.0008     0.109     0.039     0.036 -0.2015  0.9795 -0.0000
              Bcc     0.0057     0.762     0.272     0.254  0.0000  0.0000  1.0000
 
              Baa    -0.0065    -0.877    -0.313    -0.292  0.0000  0.0000  1.0000
    25 C(13)  Bbb    -0.0006    -0.086    -0.031    -0.029  0.9925 -0.1223 -0.0000
              Bcc     0.0072     0.963     0.344     0.321  0.1223  0.9925 -0.0000
 
              Baa    -0.0076    -1.016    -0.363    -0.339  0.8931 -0.4499 -0.0000
    26 C(13)  Bbb    -0.0033    -0.437    -0.156    -0.146  0.0000  0.0000  1.0000
              Bcc     0.0108     1.453     0.519     0.485  0.4499  0.8931 -0.0000
 
              Baa    -0.0194    -2.602    -0.929    -0.868  0.9850 -0.1728  0.0000
    27 C(13)  Bbb    -0.0153    -2.051    -0.732    -0.684  0.0000  0.0000  1.0000
              Bcc     0.0347     4.653     1.660     1.552  0.1728  0.9850 -0.0000
 
              Baa    -0.0244    -3.275    -1.168    -1.092  0.9786  0.2056  0.0000
    28 C(13)  Bbb     0.0045     0.601     0.215     0.201  0.0000  0.0000  1.0000
              Bcc     0.0199     2.674     0.954     0.892 -0.2056  0.9786 -0.0000
 
              Baa    -0.0092    -1.241    -0.443    -0.414  0.0000  0.0000  1.0000
    29 C(13)  Bbb     0.0029     0.386     0.138     0.129  0.9434  0.3317  0.0000
              Bcc     0.0064     0.855     0.305     0.285 -0.3317  0.9434 -0.0000
 
              Baa    -1.3716    41.449    14.790    13.826  0.8298  0.5581 -0.0000
    30 Cr(53) Bbb    -0.2297     6.942     2.477     2.316 -0.5581  0.8298 -0.0000
              Bcc     1.6013   -48.391   -17.267   -16.141  0.0000  0.0000  1.0000
 
              Baa    -0.0575    -7.710    -2.751    -2.572  0.0000  0.0000  1.0000
    31 C(13)  Bbb    -0.0574    -7.697    -2.746    -2.567 -0.6090  0.7932  0.0000
              Bcc     0.1148    15.407     5.497     5.139  0.7932  0.6090 -0.0000
 
              Baa    -0.0937   -12.569    -4.485    -4.192 -0.0884  0.9961 -0.0000
    32 C(13)  Bbb    -0.0656    -8.798    -3.139    -2.935  0.0000  0.0000  1.0000
              Bcc     0.1592    21.366     7.624     7.127  0.9961  0.0884  0.0000
 
              Baa    -0.0837   -11.225    -4.005    -3.744  0.8489  0.5286 -0.0000
    33 C(13)  Bbb    -0.0155    -2.081    -0.742    -0.694  0.0000  0.0000  1.0000
              Bcc     0.0992    13.306     4.748     4.438 -0.5286  0.8489 -0.0000
 
              Baa    -0.1520   -20.393    -7.277    -6.802 -0.3893  0.9211 -0.0000
    34 C(13)  Bbb    -0.1055   -14.151    -5.049    -4.720  0.0000  0.0000  1.0000
              Bcc     0.2574    34.544    12.326    11.523  0.9211  0.3893 -0.0000
 
              Baa    -0.0166    -2.229    -0.795    -0.744  0.0000  0.0000  1.0000
    35 C(13)  Bbb    -0.0044    -0.591    -0.211    -0.197  0.8048  0.5935  0.0000
              Bcc     0.0210     2.821     1.006     0.941 -0.5935  0.8048 -0.0000
 
              Baa    -0.0129    -1.731    -0.618    -0.577  0.5317  0.8469  0.0000
    36 C(13)  Bbb     0.0063     0.843     0.301     0.281  0.0000  0.0000  1.0000
              Bcc     0.0066     0.888     0.317     0.296  0.8469 -0.5317 -0.0000
 
              Baa    -0.0129    -1.725    -0.615    -0.575  0.0000  0.0000  1.0000
    37 C(13)  Bbb     0.0025     0.330     0.118     0.110  0.8686  0.4955  0.0000
              Bcc     0.0104     1.394     0.497     0.465 -0.4955  0.8686 -0.0000
 
              Baa    -0.0091    -1.225    -0.437    -0.409  0.9906  0.1366 -0.0000
    38 C(13)  Bbb    -0.0034    -0.462    -0.165    -0.154 -0.1366  0.9906 -0.0000
              Bcc     0.0126     1.688     0.602     0.563  0.0000  0.0000  1.0000
 
              Baa    -0.0090    -1.209    -0.431    -0.403  0.0000  0.0000  1.0000
    39 C(13)  Bbb    -0.0019    -0.253    -0.090    -0.084  0.9434 -0.3317  0.0000
              Bcc     0.0109     1.462     0.522     0.488  0.3317  0.9434 -0.0000
 
              Baa    -0.0209    -2.803    -1.000    -0.935  0.9907 -0.1363  0.0000
    40 C(13)  Bbb     0.0072     0.966     0.345     0.322  0.1363  0.9907  0.0000
              Bcc     0.0137     1.837     0.656     0.613  0.0000  0.0000  1.0000
 
              Baa    -0.0031    -1.642    -0.586    -0.548  0.0000  0.0000  1.0000
    41 H(1)   Bbb    -0.0015    -0.816    -0.291    -0.272  0.3266  0.9452 -0.0000
              Bcc     0.0046     2.457     0.877     0.820  0.9452 -0.3266  0.0000
 
              Baa    -0.0012    -0.624    -0.222    -0.208  0.8814  0.4724 -0.0000
    42 H(1)   Bbb    -0.0007    -0.348    -0.124    -0.116  0.0000  0.0000  1.0000
              Bcc     0.0018     0.971     0.347     0.324 -0.4724  0.8814  0.0000
 
              Baa    -0.0016    -0.832    -0.297    -0.277  0.9649  0.2628  0.0000
    43 H(1)   Bbb     0.0000     0.026     0.009     0.009  0.0000  0.0000  1.0000
              Bcc     0.0015     0.805     0.287     0.269 -0.2628  0.9649  0.0000
 
              Baa    -0.0026    -1.409    -0.503    -0.470  0.8117 -0.5841  0.0000
    44 H(1)   Bbb     0.0012     0.619     0.221     0.206  0.5841  0.8117 -0.0000
              Bcc     0.0015     0.791     0.282     0.264  0.0000  0.0000  1.0000
 

 ---------------------------------------------------------------------------------

 Unable to Open any file for archive entry.
 1\1\GINC-C0712A-S2\FOpt\UB3LYP\6-31G(d)\C30H12Co1Cr1(2)\ADRIAN.GONZALE
 ZS\24-Jan-2023\0\\#n B3LYP/6-31G(d) Opt scf=xqc\\gy2_CoCr_C\\0,2\C,6.4
 333276194,-8.1667074878,0.\C,5.6204645131,-7.0249326634,0.\C,4.1954087
 343,-7.1748443038,0.\C,3.6187814451,-8.4519379566,0.\C,4.4482794908,-9
 .5732801883,0.\C,5.8426829219,-9.4304933722,0.\C,6.0105889613,-5.63286
 97046,0.\C,3.486351484,-5.9185307551,0.\C,6.7938144926,-4.5739024814,0
 .\C,2.7419348293,-4.8863161272,0.\C,7.9724350823,-3.8332308003,0.\C,1.
 8849366018,-3.8233901502,0.\C,8.3159023764,-2.5852668986,0.\C,1.324760
 0031,-2.7294945834,0.\H,7.5137262496,-8.0585689977,0.\H,2.5384471384,-
 8.5601122084,0.\H,4.0089588791,-10.5667864719,0.\H,6.4719528816,-10.31
 6384239,0.\Co,4.6532770661,-4.2879692562,0.\H,12.2273462126,0.01549466
 3,0.\H,11.1419815885,-2.2239738458,0.\H,10.8555065697,2.0766042005,0.\
 H,8.3716595781,1.9409860554,0.\C,11.1435632544,-0.0617839538,0.\C,10.3
 662603118,1.1064678675,0.\C,8.9740376964,1.0375969285,0.\C,8.353270124
 2,-0.2191031668,0.\C,9.1430126145,-1.4095447798,0.\C,10.542031588,-1.3
 190337525,0.\Cr,6.2806051017,-2.4718862963,0.\C,6.9369313115,-0.495276
 2039,0.\C,5.6701848864,-0.3939479861,0.\C,4.3154247125,-0.3462651027,0
 .\C,3.0809749015,-0.3771922531,0.\C,1.6635458559,-0.2683479115,0.\C,1.
 0781408294,1.0151993494,0.\C,-0.3021746692,1.1817365124,0.\C,-1.143430
 7575,0.0640592629,0.\C,-0.5968535073,-1.2141091482,0.\C,0.7979883688,-
 1.41231099,0.\H,1.7352969632,1.8790743816,0.\H,-0.723502246,2.18305571
 41,0.\H,-2.2222036567,0.1908371701,0.\H,-1.2411659526,-2.0877057786,0.
 \\Version=ES64L-G16RevC.02\State=2-A'\HF=-3577.1164035\S2=3.734411\S2-
 1=0.\S2A=9.297302\RMSD=9.612e-09\RMSF=1.152e-05\Dipole=-0.2896365,0.07
 69208,0.\Quadrupole=9.2237707,12.8409525,-22.0647232,-0.4605987,0.,0.\
 PG=CS [SG(C30H12Co1Cr1)]\\@
 The archive entry for this job was punched.


 GETTING A SIMPLE ANSWER FROM A PROFESSOR IS LIKE
 GETTING A THIMBLE OF WATER FROM A FIRE HYDRANT.
     -- PROF. LEN SHAPIRO, NDSU
 Job cpu time:       0 days 19 hours 52 minutes  2.3 seconds.
 Elapsed time:       0 days  1 hours 23 minutes 58.2 seconds.
 File lengths (MBytes):  RWF=    422 Int=      0 D2E=      0 Chk=     30 Scr=      1
 Normal termination of Gaussian 16 at Tue Jan 24 14:30:12 2023.
