 Entering Gaussian System, Link 0=g16
 Initial command:
 /apps/gaussian/16-c02/avx2/g16/l1.exe "/blue/mingjieliu/wangzhiyu/arm_FX4/2a_fn4_e/Gau-39359.inp" -scrdir="/blue/mingjieliu/wangzhiyu/arm_FX4/2a_fn4_e/"
 Entering Link 1 = /apps/gaussian/16-c02/avx2/g16/l1.exe PID=     39361.
  
 Copyright (c) 1988-2021, Gaussian, Inc.  All Rights Reserved.
  
 This is part of the Gaussian(R) 16 program.  It is based on
 the Gaussian(R) 09 system (copyright 2009, Gaussian, Inc.),
 the Gaussian(R) 03 system (copyright 2003, Gaussian, Inc.),
 the Gaussian(R) 98 system (copyright 1998, Gaussian, Inc.),
 the Gaussian(R) 94 system (copyright 1995, Gaussian, Inc.),
 the Gaussian 92(TM) system (copyright 1992, Gaussian, Inc.),
 the Gaussian 90(TM) system (copyright 1990, Gaussian, Inc.),
 the Gaussian 88(TM) system (copyright 1988, Gaussian, Inc.),
 the Gaussian 86(TM) system (copyright 1986, Carnegie Mellon
 University), and the Gaussian 82(TM) system (copyright 1983,
 Carnegie Mellon University). Gaussian is a federally registered
 trademark of Gaussian, Inc.
  
 This software contains proprietary and confidential information,
 including trade secrets, belonging to Gaussian, Inc.
  
 This software is provided under written license and may be
 used, copied, transmitted, or stored only in accord with that
 written license.
  
 The following legend is applicable only to US Government
 contracts under FAR:
  
                    RESTRICTED RIGHTS LEGEND
  
 Use, reproduction and disclosure by the US Government is
 subject to restrictions as set forth in subparagraphs (a)
 and (c) of the Commercial Computer Software - Restricted
 Rights clause in FAR 52.227-19.
  
 Gaussian, Inc.
 340 Quinnipiac St., Bldg. 40, Wallingford CT 06492
  
  
 ---------------------------------------------------------------
 Warning -- This program may not be used in any manner that
 competes with the business of Gaussian, Inc. or will provide
 assistance to any competitor of Gaussian, Inc.  The licensee
 of this program is prohibited from giving any competitor of
 Gaussian, Inc. access to this program.  By using this program,
 the user acknowledges that Gaussian, Inc. is engaged in the
 business of creating and licensing software in the field of
 computational chemistry and represents and warrants to the
 licensee that it is not a competitor of Gaussian, Inc. and that
 it will not use this program in any manner prohibited above.
 ---------------------------------------------------------------
  

 Cite this work as:
 Gaussian 16, Revision C.02,
 M. J. Frisch, G. W. Trucks, H. B. Schlegel, G. E. Scuseria, 
 M. A. Robb, J. R. Cheeseman, G. Scalmani, V. Barone, 
 G. A. Petersson, H. Nakatsuji, X. Li, M. Caricato, A. V. Marenich, 
 J. Bloino, B. G. Janesko, R. Gomperts, B. Mennucci, H. P. Hratchian, 
 J. V. Ortiz, A. F. Izmaylov, J. L. Sonnenberg, D. Williams-Young, 
 F. Ding, F. Lipparini, F. Egidi, J. Goings, B. Peng, A. Petrone, 
 T. Henderson, D. Ranasinghe, V. G. Zakrzewski, J. Gao, N. Rega, 
 G. Zheng, W. Liang, M. Hada, M. Ehara, K. Toyota, R. Fukuda, 
 J. Hasegawa, M. Ishida, T. Nakajima, Y. Honda, O. Kitao, H. Nakai, 
 T. Vreven, K. Throssell, J. A. Montgomery, Jr., J. E. Peralta, 
 F. Ogliaro, M. J. Bearpark, J. J. Heyd, E. N. Brothers, K. N. Kudin, 
 V. N. Staroverov, T. A. Keith, R. Kobayashi, J. Normand, 
 K. Raghavachari, A. P. Rendell, J. C. Burant, S. S. Iyengar, 
 J. Tomasi, M. Cossi, J. M. Millam, M. Klene, C. Adamo, R. Cammi, 
 J. W. Ochterski, R. L. Martin, K. Morokuma, O. Farkas, 
 J. B. Foresman, and D. J. Fox, Gaussian, Inc., Wallingford CT, 2019.
 
 ******************************************
 Gaussian 16:  ES64L-G16RevC.02  7-Dec-2021
                14-Dec-2022 
 ******************************************
 %OldChk=arm.chk
 %Chk=2step.chk
 %Mem=800gb
 %NProcShared=32
 Will use up to   32 processors via shared memory.
 %CPU=0-31
 SetSPE:  set environment variable "OMP_PROC_BIND" = "true"
 SetSPE:  set environment variable "OMP_PLACES" = "{0},{1},{2},{3},{4},{5},{6},{7},{8},{9},{10},{11},{12},{13},{14},{15},{16},{17},{18},{19},{20},{21},{22},{23},{24},{25},{26},{27},{28},{29},{30},{31}"
 Will use up to   32 processors via shared memory.
 %GPUCPU=0-7=0-7
 Will use    8 GPUs:
 Thread  CPU   GPU
      0    0     0
      1    1     1
      2    2     2
      3    3     3
      4    4     4
      5    5     5
      6    6     6
      7    7     7
      8    8    -1
      9    9    -1
     10   10    -1
     11   11    -1
     12   12    -1
     13   13    -1
     14   14    -1
     15   15    -1
     16   16    -1
     17   17    -1
     18   18    -1
     19   19    -1
     20   20    -1
     21   21    -1
     22   22    -1
     23   23    -1
     24   24    -1
     25   25    -1
     26   26    -1
     27   27    -1
     28   28    -1
     29   29    -1
     30   30    -1
     31   31    -1
 SetGPE:  set environment variable "OMP_PROC_BIND" = "true"
 SetGPE:  set environment variable "OMP_PLACES" = "{0},{1},{2},{3},{4},{5},{6},{7},{8},{9},{10},{11},{12},{13},{14},{15},{16},{17},{18},{19},{20},{21},{22},{23},{24},{25},{26},{27},{28},{29},{30},{31}"
 Properties for Device   0
 Minimum vector length:                              32
 Maximum vector length:                            1024
 Number of SMPs:                                    108
 Maximum number of threads per SMP:                2048
 Number of ASync Engines:                             3
 Memory:                                           9221332992
 Properties for Device   1
 Minimum vector length:                              32
 Maximum vector length:                            1024
 Number of SMPs:                                    108
 Maximum number of threads per SMP:                2048
 Number of ASync Engines:                             3
 Memory:                                           9221332992
 Properties for Device   2
 Minimum vector length:                              32
 Maximum vector length:                            1024
 Number of SMPs:                                    108
 Maximum number of threads per SMP:                2048
 Number of ASync Engines:                             3
 Memory:                                           9221332992
 Properties for Device   3
 Minimum vector length:                              32
 Maximum vector length:                            1024
 Number of SMPs:                                    108
 Maximum number of threads per SMP:                2048
 Number of ASync Engines:                             3
 Memory:                                           9221332992
 Properties for Device   4
 Minimum vector length:                              32
 Maximum vector length:                            1024
 Number of SMPs:                                    108
 Maximum number of threads per SMP:                2048
 Number of ASync Engines:                             3
 Memory:                                           9221332992
 Properties for Device   5
 Minimum vector length:                              32
 Maximum vector length:                            1024
 Number of SMPs:                                    108
 Maximum number of threads per SMP:                2048
 Number of ASync Engines:                             3
 Memory:                                           9221332992
 Properties for Device   6
 Minimum vector length:                              32
 Maximum vector length:                            1024
 Number of SMPs:                                    108
 Maximum number of threads per SMP:                2048
 Number of ASync Engines:                             3
 Memory:                                           9221332992
 Properties for Device   7
 Minimum vector length:                              32
 Maximum vector length:                            1024
 Number of SMPs:                                    108
 Maximum number of threads per SMP:                2048
 Number of ASync Engines:                             3
 Memory:                                           9221332992
   8299199692 words of memory will be used on each GPU.
 Copying data from "arm.chk" to current chk file "2step.chk"
 IOpt=  2 FromEx=T IUOpen= 4 IOptOp= 5 NList=   0 IFRang= 0 IUIn= 4 IUOut= 2.
 ----------------------------------------------------------------------
 #n M06L/6-31G(d) Opt Geom=(AllCheck,Step=20) SCF=XQC Guess=Read Output
 =wfx Pop=Hirshfeld
 ----------------------------------------------------------------------
 1/18=20,19=15,26=3,29=7,38=1,41=20/1,3;
 2/9=110,12=2,40=1/2;
 3/5=1,6=6,7=1,11=2,14=-4,25=1,30=1,71=1,74=-53,116=-2/1,2,3;
 4/5=1/1;
 5/5=2,8=3,13=1,38=6/2,8;
 6/7=2,8=2,9=2,10=2,28=1,79=1/1;
 7//1,2,3,16;
 1/18=20,19=15,26=3/3(2);
 2/9=110/2;
 99/6=200/99;
 2/9=110/2;
 3/5=1,6=6,7=1,11=2,14=-2,25=1,30=1,71=1,74=-53/1,2,3;
 4/5=5,16=3,69=1/1;
 5/5=2,8=3,13=1,38=5/2,8;
 7//1,2,3,16;
 1/18=20,19=15,26=3/3(-5);
 2/9=110/2;
 6/7=2,8=2,9=2,10=2,19=2,28=1,79=1/1;
 99/6=200,9=1/99;
 Structure from the checkpoint file:  "2step.chk"
 --------
 2a_fn4_e
 --------
 Charge =  0 Multiplicity = 1
 Redundant internal coordinates found in file.  (old form).
 Recover coordinates from OT file, step    21 job     1.
 N,0,-1.3844600979,-5.1301399488,0.
 N,0,-1.3375956574,-2.3564831352,0.
 C,0,-0.7013193746,-1.1296710991,0.
 C,0,-1.385639618,0.0725659536,0.
 C,0,-0.6955828583,1.2985729759,0.
 C,0,-1.431349601,2.5400976061,0.
 C,0,-0.7356823337,3.763914458,0.
 C,0,-1.4659436943,4.9487772823,0.
 C,0,-2.6752992761,-4.9171850009,0.
 C,0,-3.3135539722,-3.6919926412,0.
 C,0,-2.6659906872,-2.4518304052,0.
 C,0,-3.4741279936,-1.2089272864,0.
 C,0,-2.8221894833,0.0354856025,0.
 C,0,-3.558113406,1.2351848671,0.
 C,0,-2.8422176193,2.5246060439,0.
 C,0,-3.5240065868,3.7323544617,0.
 C,0,-2.8409804762,4.9306292518,0.
 C,0,-4.8639711637,-1.2318887761,0.
 C,0,-5.5865608299,-0.0612209839,0.
 C,0,-4.942722905,1.15910085,0.
 C,0,4.8639711637,-1.2318887761,0.
 C,0,5.5865608299,-0.0612209839,0.
 C,0,4.942722905,1.15910085,0.
 C,0,2.6752992761,-4.9171850009,0.
 C,0,3.3135539722,-3.6919926412,0.
 C,0,2.6659906872,-2.4518304052,0.
 C,0,3.4741279936,-1.2089272864,0.
 C,0,2.8221894833,0.0354856025,0.
 C,0,3.558113406,1.2351848671,0.
 C,0,2.8422176193,2.5246060439,0.
 C,0,3.5240065868,3.7323544617,0.
 C,0,2.8409804762,4.9306292518,0.
 N,0,1.3844600979,-5.1301399488,0.
 N,0,1.3375956574,-2.3564831352,0.
 C,0,0.7013193746,-1.1296710991,0.
 C,0,1.385639618,0.0725659536,0.
 C,0,0.6955828583,1.2985729759,0.
 C,0,1.431349601,2.5400976061,0.
 C,0,0.7356823337,3.763914458,0.
 C,0,1.4659436943,4.9487772823,0.
 H,0,-1.1345295037,-6.1013420415,0.
 H,0,-0.9686412845,5.8936188936,0.
 H,0,-3.3337678146,-5.7728051173,0.
 H,0,-4.376834667,-3.7222984209,0.
 H,0,-4.5918878971,3.7546802339,0.
 H,0,-3.386070079,5.8532842619,0.
 H,0,-5.3951138659,-2.1561287964,0.
 H,0,-6.6573968126,-0.0965959046,0.
 H,0,-5.5360825744,2.0473003883,0.
 H,0,5.3951138659,-2.1561287964,0.
 H,0,6.6573968126,-0.0965959046,0.
 H,0,5.5360825744,2.0473003883,0.
 H,0,3.3337678146,-5.7728051173,0.
 H,0,4.376834667,-3.7222984209,0.
 H,0,4.5918878971,3.7546802339,0.
 H,0,3.386070079,5.8532842619,0.
 H,0,1.1345295037,-6.1013420415,0.
 H,0,0.9686412845,5.8936188936,0.
 Fe,0,0.,-3.7927555367,0.
 Recover connectivity data from disk.

 GradGradGradGradGradGradGradGradGradGradGradGradGradGradGradGradGradGrad
 Berny optimization.
 Initialization pass.
                           ----------------------------
                           !    Initial Parameters    !
                           ! (Angstroms and Degrees)  !
 --------------------------                            --------------------------
 ! Name  Definition              Value          Derivative Info.                !
 --------------------------------------------------------------------------------
 ! R1    R(1,9)                  1.3083         estimate D2E/DX2                !
 ! R2    R(1,41)                 1.0028         estimate D2E/DX2                !
 ! R3    R(1,59)                 1.9249         estimate D2E/DX2                !
 ! R4    R(2,3)                  1.382          estimate D2E/DX2                !
 ! R5    R(2,11)                 1.3318         estimate D2E/DX2                !
 ! R6    R(2,59)                 1.9627         estimate D2E/DX2                !
 ! R7    R(3,4)                  1.3834         estimate D2E/DX2                !
 ! R8    R(3,35)                 1.4026         estimate D2E/DX2                !
 ! R9    R(4,5)                  1.4069         estimate D2E/DX2                !
 ! R10   R(4,13)                 1.437          estimate D2E/DX2                !
 ! R11   R(5,6)                  1.4432         estimate D2E/DX2                !
 ! R12   R(5,37)                 1.3912         estimate D2E/DX2                !
 ! R13   R(6,7)                  1.4077         estimate D2E/DX2                !
 ! R14   R(6,15)                 1.411          estimate D2E/DX2                !
 ! R15   R(7,8)                  1.3918         estimate D2E/DX2                !
 ! R16   R(7,39)                 1.4714         estimate D2E/DX2                !
 ! R17   R(8,17)                 1.3752         estimate D2E/DX2                !
 ! R18   R(8,42)                 1.0677         estimate D2E/DX2                !
 ! R19   R(9,10)                 1.3815         estimate D2E/DX2                !
 ! R20   R(9,43)                 1.0797         estimate D2E/DX2                !
 ! R21   R(10,11)                1.399          estimate D2E/DX2                !
 ! R22   R(10,44)                1.0637         estimate D2E/DX2                !
 ! R23   R(11,12)                1.4825         estimate D2E/DX2                !
 ! R24   R(12,13)                1.4048         estimate D2E/DX2                !
 ! R25   R(12,18)                1.39           estimate D2E/DX2                !
 ! R26   R(13,14)                1.4074         estimate D2E/DX2                !
 ! R27   R(14,15)                1.4748         estimate D2E/DX2                !
 ! R28   R(14,20)                1.3867         estimate D2E/DX2                !
 ! R29   R(15,16)                1.3869         estimate D2E/DX2                !
 ! R30   R(16,17)                1.3793         estimate D2E/DX2                !
 ! R31   R(16,45)                1.0681         estimate D2E/DX2                !
 ! R32   R(17,46)                1.0716         estimate D2E/DX2                !
 ! R33   R(18,19)                1.3757         estimate D2E/DX2                !
 ! R34   R(18,47)                1.066          estimate D2E/DX2                !
 ! R35   R(19,20)                1.3798         estimate D2E/DX2                !
 ! R36   R(19,48)                1.0714         estimate D2E/DX2                !
 ! R37   R(20,49)                1.0682         estimate D2E/DX2                !
 ! R38   R(21,22)                1.3757         estimate D2E/DX2                !
 ! R39   R(21,27)                1.39           estimate D2E/DX2                !
 ! R40   R(21,50)                1.066          estimate D2E/DX2                !
 ! R41   R(22,23)                1.3798         estimate D2E/DX2                !
 ! R42   R(22,51)                1.0714         estimate D2E/DX2                !
 ! R43   R(23,29)                1.3867         estimate D2E/DX2                !
 ! R44   R(23,52)                1.0682         estimate D2E/DX2                !
 ! R45   R(24,25)                1.3815         estimate D2E/DX2                !
 ! R46   R(24,33)                1.3083         estimate D2E/DX2                !
 ! R47   R(24,53)                1.0797         estimate D2E/DX2                !
 ! R48   R(25,26)                1.399          estimate D2E/DX2                !
 ! R49   R(25,54)                1.0637         estimate D2E/DX2                !
 ! R50   R(26,27)                1.4825         estimate D2E/DX2                !
 ! R51   R(26,34)                1.3318         estimate D2E/DX2                !
 ! R52   R(27,28)                1.4048         estimate D2E/DX2                !
 ! R53   R(28,29)                1.4074         estimate D2E/DX2                !
 ! R54   R(28,36)                1.437          estimate D2E/DX2                !
 ! R55   R(29,30)                1.4748         estimate D2E/DX2                !
 ! R56   R(30,31)                1.3869         estimate D2E/DX2                !
 ! R57   R(30,38)                1.411          estimate D2E/DX2                !
 ! R58   R(31,32)                1.3793         estimate D2E/DX2                !
 ! R59   R(31,55)                1.0681         estimate D2E/DX2                !
 ! R60   R(32,40)                1.3752         estimate D2E/DX2                !
 ! R61   R(32,56)                1.0716         estimate D2E/DX2                !
 ! R62   R(33,57)                1.0028         estimate D2E/DX2                !
 ! R63   R(33,59)                1.9249         estimate D2E/DX2                !
 ! R64   R(34,35)                1.382          estimate D2E/DX2                !
 ! R65   R(34,59)                1.9627         estimate D2E/DX2                !
 ! R66   R(35,36)                1.3834         estimate D2E/DX2                !
 ! R67   R(36,37)                1.4069         estimate D2E/DX2                !
 ! R68   R(37,38)                1.4432         estimate D2E/DX2                !
 ! R69   R(38,39)                1.4077         estimate D2E/DX2                !
 ! R70   R(39,40)                1.3918         estimate D2E/DX2                !
 ! R71   R(40,58)                1.0677         estimate D2E/DX2                !
 ! A1    A(9,1,41)             113.7994         estimate D2E/DX2                !
 ! A2    A(9,1,59)             126.6229         estimate D2E/DX2                !
 ! A3    A(41,1,59)            119.5777         estimate D2E/DX2                !
 ! A4    A(3,2,11)             121.5186         estimate D2E/DX2                !
 ! A5    A(3,2,59)             109.6242         estimate D2E/DX2                !
 ! A6    A(11,2,59)            128.8572         estimate D2E/DX2                !
 ! A7    A(2,3,4)              122.9381         estimate D2E/DX2                !
 ! A8    A(2,3,35)             117.4132         estimate D2E/DX2                !
 ! A9    A(4,3,35)             119.6488         estimate D2E/DX2                !
 ! A10   A(3,4,5)              120.9783         estimate D2E/DX2                !
 ! A11   A(3,4,13)             118.1702         estimate D2E/DX2                !
 ! A12   A(5,4,13)             120.8515         estimate D2E/DX2                !
 ! A13   A(4,5,6)              119.9747         estimate D2E/DX2                !
 ! A14   A(4,5,37)             119.3729         estimate D2E/DX2                !
 ! A15   A(6,5,37)             120.6523         estimate D2E/DX2                !
 ! A16   A(5,6,7)              119.732          estimate D2E/DX2                !
 ! A17   A(5,6,15)             120.0232         estimate D2E/DX2                !
 ! A18   A(7,6,15)             120.2448         estimate D2E/DX2                !
 ! A19   A(6,7,8)              118.7377         estimate D2E/DX2                !
 ! A20   A(6,7,39)             119.6157         estimate D2E/DX2                !
 ! A21   A(8,7,39)             121.6466         estimate D2E/DX2                !
 ! A22   A(7,8,17)             120.8904         estimate D2E/DX2                !
 ! A23   A(7,8,42)             120.594          estimate D2E/DX2                !
 ! A24   A(17,8,42)            118.5155         estimate D2E/DX2                !
 ! A25   A(1,9,10)             126.8849         estimate D2E/DX2                !
 ! A26   A(1,9,43)             118.2132         estimate D2E/DX2                !
 ! A27   A(10,9,43)            114.9019         estimate D2E/DX2                !
 ! A28   A(9,10,11)            124.9113         estimate D2E/DX2                !
 ! A29   A(9,10,44)            115.8843         estimate D2E/DX2                !
 ! A30   A(11,10,44)           119.2044         estimate D2E/DX2                !
 ! A31   A(2,11,10)            121.6772         estimate D2E/DX2                !
 ! A32   A(2,11,12)            118.9265         estimate D2E/DX2                !
 ! A33   A(10,11,12)           119.3963         estimate D2E/DX2                !
 ! A34   A(11,12,13)           119.3183         estimate D2E/DX2                !
 ! A35   A(11,12,18)           122.0855         estimate D2E/DX2                !
 ! A36   A(13,12,18)           118.5962         estimate D2E/DX2                !
 ! A37   A(4,13,12)            119.1283         estimate D2E/DX2                !
 ! A38   A(4,13,14)            120.0473         estimate D2E/DX2                !
 ! A39   A(12,13,14)           120.8244         estimate D2E/DX2                !
 ! A40   A(13,14,15)           119.4347         estimate D2E/DX2                !
 ! A41   A(13,14,20)           118.3807         estimate D2E/DX2                !
 ! A42   A(15,14,20)           122.1846         estimate D2E/DX2                !
 ! A43   A(6,15,14)            119.6684         estimate D2E/DX2                !
 ! A44   A(6,15,16)            118.8162         estimate D2E/DX2                !
 ! A45   A(14,15,16)           121.5154         estimate D2E/DX2                !
 ! A46   A(15,16,17)           120.8713         estimate D2E/DX2                !
 ! A47   A(15,16,45)           120.643          estimate D2E/DX2                !
 ! A48   A(17,16,45)           118.4858         estimate D2E/DX2                !
 ! A49   A(8,17,16)            120.4396         estimate D2E/DX2                !
 ! A50   A(8,17,46)            119.8177         estimate D2E/DX2                !
 ! A51   A(16,17,46)           119.7426         estimate D2E/DX2                !
 ! A52   A(12,18,19)           120.7383         estimate D2E/DX2                !
 ! A53   A(12,18,47)           120.8316         estimate D2E/DX2                !
 ! A54   A(19,18,47)           118.4301         estimate D2E/DX2                !
 ! A55   A(18,19,20)           120.4992         estimate D2E/DX2                !
 ! A56   A(18,19,48)           119.7927         estimate D2E/DX2                !
 ! A57   A(20,19,48)           119.7081         estimate D2E/DX2                !
 ! A58   A(14,20,19)           120.9612         estimate D2E/DX2                !
 ! A59   A(14,20,49)           120.5996         estimate D2E/DX2                !
 ! A60   A(19,20,49)           118.4392         estimate D2E/DX2                !
 ! A61   A(22,21,27)           120.7383         estimate D2E/DX2                !
 ! A62   A(22,21,50)           118.4301         estimate D2E/DX2                !
 ! A63   A(27,21,50)           120.8316         estimate D2E/DX2                !
 ! A64   A(21,22,23)           120.4992         estimate D2E/DX2                !
 ! A65   A(21,22,51)           119.7927         estimate D2E/DX2                !
 ! A66   A(23,22,51)           119.7081         estimate D2E/DX2                !
 ! A67   A(22,23,29)           120.9612         estimate D2E/DX2                !
 ! A68   A(22,23,52)           118.4392         estimate D2E/DX2                !
 ! A69   A(29,23,52)           120.5996         estimate D2E/DX2                !
 ! A70   A(25,24,33)           126.8849         estimate D2E/DX2                !
 ! A71   A(25,24,53)           114.9019         estimate D2E/DX2                !
 ! A72   A(33,24,53)           118.2132         estimate D2E/DX2                !
 ! A73   A(24,25,26)           124.9113         estimate D2E/DX2                !
 ! A74   A(24,25,54)           115.8843         estimate D2E/DX2                !
 ! A75   A(26,25,54)           119.2044         estimate D2E/DX2                !
 ! A76   A(25,26,27)           119.3963         estimate D2E/DX2                !
 ! A77   A(25,26,34)           121.6772         estimate D2E/DX2                !
 ! A78   A(27,26,34)           118.9265         estimate D2E/DX2                !
 ! A79   A(21,27,26)           122.0855         estimate D2E/DX2                !
 ! A80   A(21,27,28)           118.5962         estimate D2E/DX2                !
 ! A81   A(26,27,28)           119.3183         estimate D2E/DX2                !
 ! A82   A(27,28,29)           120.8244         estimate D2E/DX2                !
 ! A83   A(27,28,36)           119.1283         estimate D2E/DX2                !
 ! A84   A(29,28,36)           120.0473         estimate D2E/DX2                !
 ! A85   A(23,29,28)           118.3807         estimate D2E/DX2                !
 ! A86   A(23,29,30)           122.1846         estimate D2E/DX2                !
 ! A87   A(28,29,30)           119.4347         estimate D2E/DX2                !
 ! A88   A(29,30,31)           121.5154         estimate D2E/DX2                !
 ! A89   A(29,30,38)           119.6684         estimate D2E/DX2                !
 ! A90   A(31,30,38)           118.8162         estimate D2E/DX2                !
 ! A91   A(30,31,32)           120.8713         estimate D2E/DX2                !
 ! A92   A(30,31,55)           120.643          estimate D2E/DX2                !
 ! A93   A(32,31,55)           118.4858         estimate D2E/DX2                !
 ! A94   A(31,32,40)           120.4396         estimate D2E/DX2                !
 ! A95   A(31,32,56)           119.7426         estimate D2E/DX2                !
 ! A96   A(40,32,56)           119.8177         estimate D2E/DX2                !
 ! A97   A(24,33,57)           113.7994         estimate D2E/DX2                !
 ! A98   A(24,33,59)           126.6229         estimate D2E/DX2                !
 ! A99   A(57,33,59)           119.5777         estimate D2E/DX2                !
 ! A100  A(26,34,35)           121.5186         estimate D2E/DX2                !
 ! A101  A(26,34,59)           128.8572         estimate D2E/DX2                !
 ! A102  A(35,34,59)           109.6242         estimate D2E/DX2                !
 ! A103  A(3,35,34)            117.4132         estimate D2E/DX2                !
 ! A104  A(3,35,36)            119.6488         estimate D2E/DX2                !
 ! A105  A(34,35,36)           122.9381         estimate D2E/DX2                !
 ! A106  A(28,36,35)           118.1702         estimate D2E/DX2                !
 ! A107  A(28,36,37)           120.8515         estimate D2E/DX2                !
 ! A108  A(35,36,37)           120.9783         estimate D2E/DX2                !
 ! A109  A(5,37,36)            119.3729         estimate D2E/DX2                !
 ! A110  A(5,37,38)            120.6523         estimate D2E/DX2                !
 ! A111  A(36,37,38)           119.9747         estimate D2E/DX2                !
 ! A112  A(30,38,37)           120.0232         estimate D2E/DX2                !
 ! A113  A(30,38,39)           120.2448         estimate D2E/DX2                !
 ! A114  A(37,38,39)           119.732          estimate D2E/DX2                !
 ! A115  A(7,39,38)            119.6157         estimate D2E/DX2                !
 ! A116  A(7,39,40)            121.6466         estimate D2E/DX2                !
 ! A117  A(38,39,40)           118.7377         estimate D2E/DX2                !
 ! A118  A(32,40,39)           120.8904         estimate D2E/DX2                !
 ! A119  A(32,40,58)           118.5155         estimate D2E/DX2                !
 ! A120  A(39,40,58)           120.594          estimate D2E/DX2                !
 ! A121  A(1,59,2)              91.0465         estimate D2E/DX2                !
 ! A122  A(1,59,33)             91.9817         estimate D2E/DX2                !
 ! A123  A(2,59,34)             85.9253         estimate D2E/DX2                !
 ! A124  A(33,59,34)            91.0465         estimate D2E/DX2                !
 ! A125  L(1,59,34,33,-1)      183.0282         estimate D2E/DX2                !
 ! A126  L(2,59,33,34,-1)      176.9718         estimate D2E/DX2                !
 ! A127  L(1,59,34,33,-2)      180.0            estimate D2E/DX2                !
 ! A128  L(2,59,33,34,-2)      180.0            estimate D2E/DX2                !
 ! D1    D(41,1,9,10)          180.0            estimate D2E/DX2                !
 ! D2    D(41,1,9,43)            0.0            estimate D2E/DX2                !
 ! D3    D(59,1,9,10)            0.0            estimate D2E/DX2                !
 ! D4    D(59,1,9,43)          180.0            estimate D2E/DX2                !
 ! D5    D(9,1,59,2)             0.0            estimate D2E/DX2                !
 ! D6    D(9,1,59,33)          180.0            estimate D2E/DX2                !
 ! D7    D(41,1,59,2)          180.0            estimate D2E/DX2                !
 ! D8    D(41,1,59,33)           0.0            estimate D2E/DX2                !
 ! D9    D(11,2,3,4)             0.0            estimate D2E/DX2                !
 ! D10   D(11,2,3,35)          180.0            estimate D2E/DX2                !
 ! D11   D(59,2,3,4)           180.0            estimate D2E/DX2                !
 ! D12   D(59,2,3,35)            0.0            estimate D2E/DX2                !
 ! D13   D(3,2,11,10)          180.0            estimate D2E/DX2                !
 ! D14   D(3,2,11,12)            0.0            estimate D2E/DX2                !
 ! D15   D(59,2,11,10)           0.0            estimate D2E/DX2                !
 ! D16   D(59,2,11,12)         180.0            estimate D2E/DX2                !
 ! D17   D(3,2,59,1)           180.0            estimate D2E/DX2                !
 ! D18   D(3,2,59,34)            0.0            estimate D2E/DX2                !
 ! D19   D(11,2,59,1)            0.0            estimate D2E/DX2                !
 ! D20   D(11,2,59,34)         180.0            estimate D2E/DX2                !
 ! D21   D(2,3,4,5)            180.0            estimate D2E/DX2                !
 ! D22   D(2,3,4,13)             0.0            estimate D2E/DX2                !
 ! D23   D(35,3,4,5)             0.0            estimate D2E/DX2                !
 ! D24   D(35,3,4,13)          180.0            estimate D2E/DX2                !
 ! D25   D(2,3,35,34)            0.0            estimate D2E/DX2                !
 ! D26   D(2,3,35,36)          180.0            estimate D2E/DX2                !
 ! D27   D(4,3,35,34)          180.0            estimate D2E/DX2                !
 ! D28   D(4,3,35,36)            0.0            estimate D2E/DX2                !
 ! D29   D(3,4,5,6)            180.0            estimate D2E/DX2                !
 ! D30   D(3,4,5,37)             0.0            estimate D2E/DX2                !
 ! D31   D(13,4,5,6)             0.0            estimate D2E/DX2                !
 ! D32   D(13,4,5,37)          180.0            estimate D2E/DX2                !
 ! D33   D(3,4,13,12)            0.0            estimate D2E/DX2                !
 ! D34   D(3,4,13,14)          180.0            estimate D2E/DX2                !
 ! D35   D(5,4,13,12)          180.0            estimate D2E/DX2                !
 ! D36   D(5,4,13,14)            0.0            estimate D2E/DX2                !
 ! D37   D(4,5,6,7)            180.0            estimate D2E/DX2                !
 ! D38   D(4,5,6,15)             0.0            estimate D2E/DX2                !
 ! D39   D(37,5,6,7)             0.0            estimate D2E/DX2                !
 ! D40   D(37,5,6,15)          180.0            estimate D2E/DX2                !
 ! D41   D(4,5,37,36)            0.0            estimate D2E/DX2                !
 ! D42   D(4,5,37,38)          180.0            estimate D2E/DX2                !
 ! D43   D(6,5,37,36)          180.0            estimate D2E/DX2                !
 ! D44   D(6,5,37,38)            0.0            estimate D2E/DX2                !
 ! D45   D(5,6,7,8)            180.0            estimate D2E/DX2                !
 ! D46   D(5,6,7,39)             0.0            estimate D2E/DX2                !
 ! D47   D(15,6,7,8)             0.0            estimate D2E/DX2                !
 ! D48   D(15,6,7,39)          180.0            estimate D2E/DX2                !
 ! D49   D(5,6,15,14)            0.0            estimate D2E/DX2                !
 ! D50   D(5,6,15,16)          180.0            estimate D2E/DX2                !
 ! D51   D(7,6,15,14)          180.0            estimate D2E/DX2                !
 ! D52   D(7,6,15,16)            0.0            estimate D2E/DX2                !
 ! D53   D(6,7,8,17)             0.0            estimate D2E/DX2                !
 ! D54   D(6,7,8,42)           180.0            estimate D2E/DX2                !
 ! D55   D(39,7,8,17)          180.0            estimate D2E/DX2                !
 ! D56   D(39,7,8,42)            0.0            estimate D2E/DX2                !
 ! D57   D(6,7,39,38)            0.0            estimate D2E/DX2                !
 ! D58   D(6,7,39,40)          180.0            estimate D2E/DX2                !
 ! D59   D(8,7,39,38)          180.0            estimate D2E/DX2                !
 ! D60   D(8,7,39,40)            0.0            estimate D2E/DX2                !
 ! D61   D(7,8,17,16)            0.0            estimate D2E/DX2                !
 ! D62   D(7,8,17,46)          180.0            estimate D2E/DX2                !
 ! D63   D(42,8,17,16)         180.0            estimate D2E/DX2                !
 ! D64   D(42,8,17,46)           0.0            estimate D2E/DX2                !
 ! D65   D(1,9,10,11)            0.0            estimate D2E/DX2                !
 ! D66   D(1,9,10,44)          180.0            estimate D2E/DX2                !
 ! D67   D(43,9,10,11)         180.0            estimate D2E/DX2                !
 ! D68   D(43,9,10,44)           0.0            estimate D2E/DX2                !
 ! D69   D(9,10,11,2)            0.0            estimate D2E/DX2                !
 ! D70   D(9,10,11,12)         180.0            estimate D2E/DX2                !
 ! D71   D(44,10,11,2)         180.0            estimate D2E/DX2                !
 ! D72   D(44,10,11,12)          0.0            estimate D2E/DX2                !
 ! D73   D(2,11,12,13)           0.0            estimate D2E/DX2                !
 ! D74   D(2,11,12,18)         180.0            estimate D2E/DX2                !
 ! D75   D(10,11,12,13)        180.0            estimate D2E/DX2                !
 ! D76   D(10,11,12,18)          0.0            estimate D2E/DX2                !
 ! D77   D(11,12,13,4)           0.0            estimate D2E/DX2                !
 ! D78   D(11,12,13,14)        180.0            estimate D2E/DX2                !
 ! D79   D(18,12,13,4)         180.0            estimate D2E/DX2                !
 ! D80   D(18,12,13,14)          0.0            estimate D2E/DX2                !
 ! D81   D(11,12,18,19)        180.0            estimate D2E/DX2                !
 ! D82   D(11,12,18,47)          0.0            estimate D2E/DX2                !
 ! D83   D(13,12,18,19)          0.0            estimate D2E/DX2                !
 ! D84   D(13,12,18,47)        180.0            estimate D2E/DX2                !
 ! D85   D(4,13,14,15)           0.0            estimate D2E/DX2                !
 ! D86   D(4,13,14,20)         180.0            estimate D2E/DX2                !
 ! D87   D(12,13,14,15)        180.0            estimate D2E/DX2                !
 ! D88   D(12,13,14,20)          0.0            estimate D2E/DX2                !
 ! D89   D(13,14,15,6)           0.0            estimate D2E/DX2                !
 ! D90   D(13,14,15,16)        180.0            estimate D2E/DX2                !
 ! D91   D(20,14,15,6)         180.0            estimate D2E/DX2                !
 ! D92   D(20,14,15,16)          0.0            estimate D2E/DX2                !
 ! D93   D(13,14,20,19)          0.0            estimate D2E/DX2                !
 ! D94   D(13,14,20,49)        180.0            estimate D2E/DX2                !
 ! D95   D(15,14,20,19)        180.0            estimate D2E/DX2                !
 ! D96   D(15,14,20,49)          0.0            estimate D2E/DX2                !
 ! D97   D(6,15,16,17)           0.0            estimate D2E/DX2                !
 ! D98   D(6,15,16,45)         180.0            estimate D2E/DX2                !
 ! D99   D(14,15,16,17)        180.0            estimate D2E/DX2                !
 ! D100  D(14,15,16,45)          0.0            estimate D2E/DX2                !
 ! D101  D(15,16,17,8)           0.0            estimate D2E/DX2                !
 ! D102  D(15,16,17,46)        180.0            estimate D2E/DX2                !
 ! D103  D(45,16,17,8)         180.0            estimate D2E/DX2                !
 ! D104  D(45,16,17,46)          0.0            estimate D2E/DX2                !
 ! D105  D(12,18,19,20)          0.0            estimate D2E/DX2                !
 ! D106  D(12,18,19,48)        180.0            estimate D2E/DX2                !
 ! D107  D(47,18,19,20)        180.0            estimate D2E/DX2                !
 ! D108  D(47,18,19,48)          0.0            estimate D2E/DX2                !
 ! D109  D(18,19,20,14)          0.0            estimate D2E/DX2                !
 ! D110  D(18,19,20,49)        180.0            estimate D2E/DX2                !
 ! D111  D(48,19,20,14)        180.0            estimate D2E/DX2                !
 ! D112  D(48,19,20,49)          0.0            estimate D2E/DX2                !
 ! D113  D(27,21,22,23)          0.0            estimate D2E/DX2                !
 ! D114  D(27,21,22,51)        180.0            estimate D2E/DX2                !
 ! D115  D(50,21,22,23)        180.0            estimate D2E/DX2                !
 ! D116  D(50,21,22,51)          0.0            estimate D2E/DX2                !
 ! D117  D(22,21,27,26)        180.0            estimate D2E/DX2                !
 ! D118  D(22,21,27,28)          0.0            estimate D2E/DX2                !
 ! D119  D(50,21,27,26)          0.0            estimate D2E/DX2                !
 ! D120  D(50,21,27,28)        180.0            estimate D2E/DX2                !
 ! D121  D(21,22,23,29)          0.0            estimate D2E/DX2                !
 ! D122  D(21,22,23,52)        180.0            estimate D2E/DX2                !
 ! D123  D(51,22,23,29)        180.0            estimate D2E/DX2                !
 ! D124  D(51,22,23,52)          0.0            estimate D2E/DX2                !
 ! D125  D(22,23,29,28)          0.0            estimate D2E/DX2                !
 ! D126  D(22,23,29,30)        180.0            estimate D2E/DX2                !
 ! D127  D(52,23,29,28)        180.0            estimate D2E/DX2                !
 ! D128  D(52,23,29,30)          0.0            estimate D2E/DX2                !
 ! D129  D(33,24,25,26)          0.0            estimate D2E/DX2                !
 ! D130  D(33,24,25,54)        180.0            estimate D2E/DX2                !
 ! D131  D(53,24,25,26)        180.0            estimate D2E/DX2                !
 ! D132  D(53,24,25,54)          0.0            estimate D2E/DX2                !
 ! D133  D(25,24,33,57)        180.0            estimate D2E/DX2                !
 ! D134  D(25,24,33,59)          0.0            estimate D2E/DX2                !
 ! D135  D(53,24,33,57)          0.0            estimate D2E/DX2                !
 ! D136  D(53,24,33,59)        180.0            estimate D2E/DX2                !
 ! D137  D(24,25,26,27)        180.0            estimate D2E/DX2                !
 ! D138  D(24,25,26,34)          0.0            estimate D2E/DX2                !
 ! D139  D(54,25,26,27)          0.0            estimate D2E/DX2                !
 ! D140  D(54,25,26,34)        180.0            estimate D2E/DX2                !
 ! D141  D(25,26,27,21)          0.0            estimate D2E/DX2                !
 ! D142  D(25,26,27,28)        180.0            estimate D2E/DX2                !
 ! D143  D(34,26,27,21)        180.0            estimate D2E/DX2                !
 ! D144  D(34,26,27,28)          0.0            estimate D2E/DX2                !
 ! D145  D(25,26,34,35)        180.0            estimate D2E/DX2                !
 ! D146  D(25,26,34,59)          0.0            estimate D2E/DX2                !
 ! D147  D(27,26,34,35)          0.0            estimate D2E/DX2                !
 ! D148  D(27,26,34,59)        180.0            estimate D2E/DX2                !
 ! D149  D(21,27,28,29)          0.0            estimate D2E/DX2                !
 ! D150  D(21,27,28,36)        180.0            estimate D2E/DX2                !
 ! D151  D(26,27,28,29)        180.0            estimate D2E/DX2                !
 ! D152  D(26,27,28,36)          0.0            estimate D2E/DX2                !
 ! D153  D(27,28,29,23)          0.0            estimate D2E/DX2                !
 ! D154  D(27,28,29,30)        180.0            estimate D2E/DX2                !
 ! D155  D(36,28,29,23)        180.0            estimate D2E/DX2                !
 ! D156  D(36,28,29,30)          0.0            estimate D2E/DX2                !
 ! D157  D(27,28,36,35)          0.0            estimate D2E/DX2                !
 ! D158  D(27,28,36,37)        180.0            estimate D2E/DX2                !
 ! D159  D(29,28,36,35)        180.0            estimate D2E/DX2                !
 ! D160  D(29,28,36,37)          0.0            estimate D2E/DX2                !
 ! D161  D(23,29,30,31)          0.0            estimate D2E/DX2                !
 ! D162  D(23,29,30,38)        180.0            estimate D2E/DX2                !
 ! D163  D(28,29,30,31)        180.0            estimate D2E/DX2                !
 ! D164  D(28,29,30,38)          0.0            estimate D2E/DX2                !
 ! D165  D(29,30,31,32)        180.0            estimate D2E/DX2                !
 ! D166  D(29,30,31,55)          0.0            estimate D2E/DX2                !
 ! D167  D(38,30,31,32)          0.0            estimate D2E/DX2                !
 ! D168  D(38,30,31,55)        180.0            estimate D2E/DX2                !
 ! D169  D(29,30,38,37)          0.0            estimate D2E/DX2                !
 ! D170  D(29,30,38,39)        180.0            estimate D2E/DX2                !
 ! D171  D(31,30,38,37)        180.0            estimate D2E/DX2                !
 ! D172  D(31,30,38,39)          0.0            estimate D2E/DX2                !
 ! D173  D(30,31,32,40)          0.0            estimate D2E/DX2                !
 ! D174  D(30,31,32,56)        180.0            estimate D2E/DX2                !
 ! D175  D(55,31,32,40)        180.0            estimate D2E/DX2                !
 ! D176  D(55,31,32,56)          0.0            estimate D2E/DX2                !
 ! D177  D(31,32,40,39)          0.0            estimate D2E/DX2                !
 ! D178  D(31,32,40,58)        180.0            estimate D2E/DX2                !
 ! D179  D(56,32,40,39)        180.0            estimate D2E/DX2                !
 ! D180  D(56,32,40,58)          0.0            estimate D2E/DX2                !
 ! D181  D(24,33,59,1)         180.0            estimate D2E/DX2                !
 ! D182  D(24,33,59,34)          0.0            estimate D2E/DX2                !
 ! D183  D(57,33,59,1)           0.0            estimate D2E/DX2                !
 ! D184  D(57,33,59,34)        180.0            estimate D2E/DX2                !
 ! D185  D(26,34,35,3)         180.0            estimate D2E/DX2                !
 ! D186  D(26,34,35,36)          0.0            estimate D2E/DX2                !
 ! D187  D(59,34,35,3)           0.0            estimate D2E/DX2                !
 ! D188  D(59,34,35,36)        180.0            estimate D2E/DX2                !
 ! D189  D(26,34,59,2)         180.0            estimate D2E/DX2                !
 ! D190  D(26,34,59,33)          0.0            estimate D2E/DX2                !
 ! D191  D(35,34,59,2)           0.0            estimate D2E/DX2                !
 ! D192  D(35,34,59,33)        180.0            estimate D2E/DX2                !
 ! D193  D(3,35,36,28)         180.0            estimate D2E/DX2                !
 ! D194  D(3,35,36,37)           0.0            estimate D2E/DX2                !
 ! D195  D(34,35,36,28)          0.0            estimate D2E/DX2                !
 ! D196  D(34,35,36,37)        180.0            estimate D2E/DX2                !
 ! D197  D(28,36,37,5)         180.0            estimate D2E/DX2                !
 ! D198  D(28,36,37,38)          0.0            estimate D2E/DX2                !
 ! D199  D(35,36,37,5)           0.0            estimate D2E/DX2                !
 ! D200  D(35,36,37,38)        180.0            estimate D2E/DX2                !
 ! D201  D(5,37,38,30)         180.0            estimate D2E/DX2                !
 ! D202  D(5,37,38,39)           0.0            estimate D2E/DX2                !
 ! D203  D(36,37,38,30)          0.0            estimate D2E/DX2                !
 ! D204  D(36,37,38,39)        180.0            estimate D2E/DX2                !
 ! D205  D(30,38,39,7)         180.0            estimate D2E/DX2                !
 ! D206  D(30,38,39,40)          0.0            estimate D2E/DX2                !
 ! D207  D(37,38,39,7)           0.0            estimate D2E/DX2                !
 ! D208  D(37,38,39,40)        180.0            estimate D2E/DX2                !
 ! D209  D(7,39,40,32)         180.0            estimate D2E/DX2                !
 ! D210  D(7,39,40,58)           0.0            estimate D2E/DX2                !
 ! D211  D(38,39,40,32)          0.0            estimate D2E/DX2                !
 ! D212  D(38,39,40,58)        180.0            estimate D2E/DX2                !
 --------------------------------------------------------------------------------
 Trust Radius=3.00D-01 FncErr=1.00D-07 GrdErr=1.00D-06 EigMax=2.50D+02 EigMin=1.00D-04
 Number of steps in this run=    354 maximum allowed number of steps=    354.
 GradGradGradGradGradGradGradGradGradGradGradGradGradGradGradGradGradGrad

 Stoichiometry    C36H18FeN4
 Framework group  C2V[C2(Fe),SGV(C36H18N4)]
 Deg. of freedom    58
 Full point group                 C2V     NOp   4
 Largest Abelian subgroup         C2V     NOp   4
 Largest concise Abelian subgroup C2      NOp   2
                         Standard orientation:                         
 ---------------------------------------------------------------------
 Center     Atomic      Atomic             Coordinates (Angstroms)
 Number     Number       Type             X           Y           Z
 ---------------------------------------------------------------------
      1          7           0        0.000000    1.384460    4.902911
      2          7           0        0.000000    1.337596    2.129254
      3          6           0        0.000000    0.701319    0.902442
      4          6           0        0.000000    1.385640   -0.299795
      5          6           0        0.000000    0.695583   -1.525802
      6          6           0        0.000000    1.431350   -2.767327
      7          6           0        0.000000    0.735682   -3.991144
      8          6           0        0.000000    1.465944   -5.176007
      9          6           0        0.000000    2.675299    4.689956
     10          6           0        0.000000    3.313554    3.464763
     11          6           0        0.000000    2.665991    2.224601
     12          6           0        0.000000    3.474128    0.981698
     13          6           0        0.000000    2.822189   -0.262715
     14          6           0        0.000000    3.558113   -1.462414
     15          6           0        0.000000    2.842218   -2.751835
     16          6           0        0.000000    3.524007   -3.959584
     17          6           0        0.000000    2.840980   -5.157859
     18          6           0        0.000000    4.863971    1.004659
     19          6           0        0.000000    5.586561   -0.166008
     20          6           0        0.000000    4.942723   -1.386330
     21          6           0       -0.000000   -4.863971    1.004659
     22          6           0       -0.000000   -5.586561   -0.166008
     23          6           0       -0.000000   -4.942723   -1.386330
     24          6           0       -0.000000   -2.675299    4.689956
     25          6           0       -0.000000   -3.313554    3.464763
     26          6           0       -0.000000   -2.665991    2.224601
     27          6           0       -0.000000   -3.474128    0.981698
     28          6           0       -0.000000   -2.822189   -0.262715
     29          6           0       -0.000000   -3.558113   -1.462414
     30          6           0       -0.000000   -2.842218   -2.751835
     31          6           0       -0.000000   -3.524007   -3.959584
     32          6           0       -0.000000   -2.840980   -5.157859
     33          7           0       -0.000000   -1.384460    4.902911
     34          7           0       -0.000000   -1.337596    2.129254
     35          6           0       -0.000000   -0.701319    0.902442
     36          6           0       -0.000000   -1.385640   -0.299795
     37          6           0       -0.000000   -0.695583   -1.525802
     38          6           0       -0.000000   -1.431350   -2.767327
     39          6           0       -0.000000   -0.735682   -3.991144
     40          6           0       -0.000000   -1.465944   -5.176007
     41          1           0        0.000000    1.134530    5.874113
     42          1           0        0.000000    0.968641   -6.120848
     43          1           0        0.000000    3.333768    5.545576
     44          1           0        0.000000    4.376835    3.495069
     45          1           0        0.000000    4.591888   -3.981910
     46          1           0        0.000000    3.386070   -6.080514
     47          1           0        0.000000    5.395114    1.928899
     48          1           0        0.000000    6.657397   -0.130633
     49          1           0        0.000000    5.536083   -2.274530
     50          1           0       -0.000000   -5.395114    1.928899
     51          1           0       -0.000000   -6.657397   -0.130633
     52          1           0       -0.000000   -5.536083   -2.274530
     53          1           0       -0.000000   -3.333768    5.545576
     54          1           0       -0.000000   -4.376835    3.495069
     55          1           0       -0.000000   -4.591888   -3.981910
     56          1           0       -0.000000   -3.386070   -6.080514
     57          1           0       -0.000000   -1.134530    5.874113
     58          1           0       -0.000000   -0.968641   -6.120848
     59         26           0        0.000000    0.000000    3.565526
 ---------------------------------------------------------------------
 Rotational constants (GHZ):           0.1096924           0.0930384           0.0503407
 Standard basis: 6-31G(d) (6D, 7F)
 There are   256 symmetry adapted cartesian basis functions of A1  symmetry.
 There are    83 symmetry adapted cartesian basis functions of A2  symmetry.
 There are    89 symmetry adapted cartesian basis functions of B1  symmetry.
 There are   247 symmetry adapted cartesian basis functions of B2  symmetry.
 There are   255 symmetry adapted basis functions of A1  symmetry.
 There are    83 symmetry adapted basis functions of A2  symmetry.
 There are    88 symmetry adapted basis functions of B1  symmetry.
 There are   246 symmetry adapted basis functions of B2  symmetry.
   672 basis functions,  1296 primitive gaussians,   675 cartesian basis functions
   144 alpha electrons      144 beta electrons
       nuclear repulsion energy      4976.9651949726 Hartrees.
 NAtoms=   59 NActive=   59 NUniq=   30 SFac= 3.87D+00 NAtFMM=   60 NAOKFM=F Big=F
 Integral buffers will be    131072 words long.
 Raffenetti 2 integral format.
 Two-electron integral symmetry is turned on.
 One-electron integrals computed using PRISM.
 NBasis=   672 RedAO= T EigKep=  4.70D-05  NBF=   255    83    88   246
 NBsUse=   672 1.00D-06 EigRej= -1.00D+00 NBFU=   255    83    88   246
 Initial guess from the checkpoint file:  "2step.chk"
 B after Tr=     0.000000    0.000000    0.000000
         Rot=    1.000000    0.000000    0.000000   -0.000000 Ang=   0.00 deg.
 Initial guess orbital symmetries:
       Occupied  (A1) (A1) (B2) (B1) (A1) (B2) (A1) (A1) (B2) (B2)
                 (A1) (B2) (A1) (B2) (A1) (B2) (A1) (B2) (A1) (B2)
                 (A1) (B2) (A1) (B2) (A1) (B2) (A1) (B2) (A1) (B2)
                 (A1) (B2) (A1) (B2) (A1) (B2) (A1) (B2) (A1) (B2)
                 (A1) (B2) (A1) (B2) (A1) (A1) (B2) (B1) (A1) (A1)
                 (B2) (A1) (A1) (B2) (B2) (A1) (A1) (B2) (B2) (A1)
                 (A1) (B2) (A1) (B2) (A1) (B2) (A1) (B2) (A1) (B2)
                 (A1) (A1) (B2) (A1) (B2) (B2) (A1) (B2) (A1) (B2)
                 (A1) (A1) (B2) (A1) (B2) (A1) (B2) (A1) (B2) (A1)
                 (B2) (B2) (A1) (A1) (B2) (A1) (A1) (B2) (A1) (B1)
                 (B2) (A1) (B2) (A1) (B2) (B2) (A2) (B1) (A1) (A1)
                 (A1) (B2) (B2) (A1) (A2) (B1) (B2) (B2) (A1) (B1)
                 (A1) (A2) (B2) (B1) (A2) (A1) (B2) (A1) (B2) (A1)
                 (B1) (A2) (B1) (B1) (A2) (A1) (B1) (B1) (A2) (A2)
                 (B1) (A2) (A2) (B1)
       Virtual   (A2) (B1) (B1) (B1) (A1) (B1) (B1) (A2) (A2) (A1)
                 (A2) (B2) (B1) (A2) (A2) (B1) (A1) (B2) (B1) (A1)
                 (B2) (A1) (B2) (A2) (A1) (B2) (A1) (B1) (B2) (A1)
                 (A1) (A2) (A2) (B2) (A1) (B1) (A1) (B2) (A1) (B2)
                 (B2) (B2) (B2) (A1) (A2) (A1) (A1) (B2) (B2) (A1)
                 (B1) (A1) (B2) (A1) (B2) (A1) (A1) (B2) (A1) (B2)
                 (A2) (B2) (A1) (B2) (A1) (B2) (A1) (B2) (B2) (A1)
                 (A1) (B2) (B2) (A1) (B2) (A1) (B2) (B2) (A1) (B2)
                 (B2) (A1) (A1) (A1) (B2) (A1) (B2) (A1) (B2) (A1)
                 (B2) (B2) (A1) (B2) (A1) (B1) (A2) (B2) (A1) (B1)
                 (B1) (A2) (B2) (A1) (A1) (A2) (A1) (B2) (B2) (B1)
                 (A2) (A1) (B1) (B1) (A2) (B2) (A1) (B2) (A1) (B1)
                 (A1) (A2) (B2) (B1) (A1) (A2) (B2) (B1) (B2) (A1)
                 (B2) (B1) (A1) (B2) (A1) (A2) (A2) (B2) (B1) (A1)
                 (B1) (B2) (A2) (B2) (A1) (B1) (A1) (A2) (B1) (A2)
                 (A2) (B1) (B1) (A2) (A2) (B1) (B2) (A1) (A1) (B2)
                 (A2) (A1) (B2) (A2) (A1) (B2) (A1) (B2) (B2) (B1)
                 (A1) (A1) (B2) (B2) (A1) (B2) (A1) (A1) (B2) (A2)
                 (B1) (B2) (A1) (A2) (B2) (A1) (B2) (A1) (A1) (B2)
                 (A1) (B2) (B2) (A1) (A1) (B1) (B2) (A2) (A1) (B2)
                 (A1) (A1) (B2) (A1) (B2) (A1) (B2) (B2) (A1) (A1)
                 (B2) (A1) (B2) (A1) (B2) (A1) (B2) (A1) (B2) (B2)
                 (A1) (B2) (A1) (B2) (A1) (A1) (B2) (A1) (B2) (A1)
                 (B2) (B2) (A1) (B2) (A1) (B2) (B2) (A1) (B2) (A1)
                 (A1) (B2) (A1) (B2) (B2) (A1) (B2) (B2) (A1) (A1)
                 (B2) (B2) (A1) (A1) (A1) (B2) (B2) (B2) (A1) (B2)
                 (A1) (B2) (A1) (B2) (A1) (A1) (B2) (B2) (A1) (B2)
                 (B2) (A1) (B2) (B1) (A2) (A1) (A1) (A1) (B2) (B2)
                 (A1) (A1) (A1) (A1) (A1) (A1) (A1) (A1) (A1) (A1)
                 (A1) (A1) (A1) (A1) (A1) (A1) (A1) (A1) (A1) (A1)
                 (A1) (A1) (A1) (A1) (A1) (A1) (A1) (A1) (A1) (A1)
                 (A1) (A1) (A1) (A1) (A1) (A1) (A1) (A1) (A1) (A1)
                 (A1) (A1) (A1) (A1) (A1) (A1) (A1) (A1) (A1) (A1)
                 (A1) (A1) (A1) (A1) (A1) (A1) (A1) (A1) (A1) (A1)
                 (A1) (A1) (A1) (A1) (A1) (A1) (A1) (A1) (A1) (A1)
                 (A1) (A1) (A1) (A1) (A1) (A1) (A1) (A1) (A1) (A1)
                 (A1) (A1) (A1) (A2) (A2) (A2) (A2) (A2) (A2) (A2)
                 (A2) (A2) (A2) (A2) (A2) (A2) (A2) (A2) (A2) (A2)
                 (A2) (A2) (A2) (A2) (A2) (A2) (A2) (A2) (A2) (A2)
                 (A2) (A2) (A2) (A2) (A2) (A2) (A2) (A2) (A2) (A2)
                 (A2) (A2) (A2) (A2) (B1) (B1) (B1) (B1) (B1) (B1)
                 (B1) (B1) (B1) (B1) (B1) (B1) (B1) (B1) (B1) (B1)
                 (B1) (B1) (B1) (B1) (B1) (B1) (B1) (B1) (B1) (B1)
                 (B1) (B1) (B1) (B1) (B1) (B1) (B1) (B1) (B1) (B1)
                 (B1) (B1) (B1) (B1) (B1) (B1) (B2) (B2) (B2) (B2)
                 (B2) (B2) (B2) (B2) (B2) (B2) (B2) (B2) (B2) (B2)
                 (B2) (B2) (B2) (B2) (B2) (B2) (B2) (B2) (B2) (B2)
                 (B2) (B2) (B2) (B2) (B2) (B2) (B2) (B2) (B2) (B2)
                 (B2) (B2) (B2) (B2) (B2) (B2) (B2) (B2) (B2) (B2)
                 (B2) (B2) (B2) (B2) (B2) (B2) (B2) (B2) (B2) (B2)
                 (B2) (B2) (B2) (B2) (B2) (B2) (B2) (B2) (B2) (B2)
                 (B2) (B2) (B2) (B2) (B2) (B2) (B2) (B2) (B2) (B2)
                 (B2) (B2) (B2) (B2) (B2) (B2) (B2) (B2)
 Requested convergence on RMS density matrix=1.00D-08 within  32 cycles.
 Requested convergence on MAX density matrix=1.00D-06.
 Requested convergence on             energy=1.00D-06.
 No special actions if energy rises.
 EnCoef did    14 forward-backward iterations
 EnCoef did    12 forward-backward iterations
 EnCoef did     8 forward-backward iterations
 EnCoef did     8 forward-backward iterations
 EnCoef did     1 forward-backward iterations
 Restarting incremental Fock formation.
 SCF Done:  E(RM06L) =  -2865.25344908     A.U. after   21 cycles
            NFock= 21  Conv=0.84D-08     -V/T= 2.0046
 QCSCF skips out because SCF is already converged.

 **********************************************************************

            Population analysis using the SCF Density.

 **********************************************************************

 Orbital symmetries:
       Occupied  (A1) (A1) (B2) (B1) (A1) (B2) (A1) (B2) (A1) (B2)
                 (A1) (A1) (B2) (B2) (A1) (B2) (A1) (B2) (A1) (B2)
                 (A1) (A1) (B2) (B2) (A1) (A1) (B2) (A1) (B2) (A1)
                 (B2) (B2) (A1) (B2) (A1) (B2) (A1) (B2) (A1) (B2)
                 (A1) (B2) (A1) (B2) (A1) (A1) (B2) (B1) (A1) (A1)
                 (B2) (A1) (B2) (A1) (B2) (A1) (A1) (B2) (B2) (A1)
                 (A1) (B2) (A1) (B2) (A1) (B2) (A1) (B2) (A1) (B2)
                 (A1) (A1) (B2) (A1) (B2) (B2) (A1) (B2) (A1) (B2)
                 (A1) (B2) (A1) (A1) (A1) (B2) (B2) (A1) (B2) (A1)
                 (B2) (B2) (A1) (A1) (B2) (A1) (B1) (B2) (A1) (A1)
                 (B2) (A1) (B2) (A2) (A1) (B2) (B1) (B2) (A1) (A1)
                 (B2) (A2) (A1) (B1) (B2) (A1) (B1) (B2) (A2) (B2)
                 (A1) (B1) (A1) (A2) (B2) (B2) (B1) (A2) (A1) (B2)
                 (B1) (A1) (A2) (B1) (B1) (A2) (A2) (B1) (A2) (A2)
                 (B1) (A1) (A1) (B1)
       Virtual   (A2) (A2) (B1) (B1) (B1) (A2) (B1) (A2) (B2) (A2)
                 (B1) (A2) (A2) (B1) (A1) (B1) (A1) (B2) (A1) (B1)
                 (B2) (A1) (A2) (B2) (A1) (B2) (A1) (A2) (B1) (B2)
                 (A1) (B2) (A1) (A1) (A1) (A2) (B2) (A1) (B2) (B1)
                 (A1) (B2) (B2) (B2) (A1) (A1) (A1) (B2) (B2) (A1)
                 (B2) (A1) (A2) (B2) (A1) (A1) (B2) (A1) (B2) (A1)
                 (B2) (A1) (A1) (B2) (B2) (B1) (A1) (B2) (B2) (A1)
                 (A1) (B2) (B2) (A1) (B2) (B2) (A1) (B2) (A1) (B2)
                 (A1) (B2) (A1) (B1) (A1) (A2) (B2) (B1) (A1) (A2)
                 (B1) (B2) (B2) (A1) (A1) (A2) (A1) (B2) (B1) (A1)
                 (B2) (A2) (A1) (B2) (B1) (A1) (B2) (A2) (B1) (A1)
                 (A1) (B2) (B2) (A1) (A1) (B2) (B2) (A1) (B1) (A2)
                 (B2) (B2) (A1) (A1) (B1) (A2) (A1) (B2) (B1) (A1)
                 (A1) (B2) (B2) (B1) (A1) (A2) (A1) (A2) (B2) (B1)
                 (B1) (A2) (B2) (B1) (A1) (A2) (B2) (B1) (A2) (A2)
                 (B2) (B1) (A1) (B1) (B2) (A1) (A2) (A1) (B2) (B1)
                 (A2) (A1) (B2) (B1) (A2) (A1) (B2) (B2) (A1) (B2)
                 (A1) (B2) (A1) (A1) (A2) (B2) (A2) (A1) (B2) (A1)
                 (B2) (A1) (B2) (B1) (B2) (A1) (A1) (B2) (A2) (B2)
                 (A1) (A1) (B2) (A1) (B2) (A1) (B2) (B2) (A1) (B1)
                 (A1) (B2) (A1) (B2) (A1) (B2) (A2) (B2) (A1) (A1)
                 (A1) (B2) (B2) (A1) (B2) (B1) (A1) (B2) (B1) (A1)
                 (B2) (A1) (B2) (B2) (A2) (A1) (B1) (A2) (A1) (B2)
                 (B1) (B1) (A2) (A1) (A2) (B1) (A1) (B2) (A1) (A2)
                 (B2) (B1) (A1) (B1) (B1) (B2) (A2) (B2) (A1) (B1)
                 (B2) (A2) (B2) (A1) (A2) (B2) (B2) (B1) (A2) (A2)
                 (B1) (B1) (B2) (A1) (A2) (B1) (B1) (A2) (A1) (B1)
                 (B2) (A2) (A1) (B2) (B2) (A1) (A1) (B2) (A2) (A1)
                 (A1) (A1) (B2) (B2) (B1) (A1) (A1) (B2) (A1) (A1)
                 (A1) (B2) (A2) (A1) (A1) (B2) (B2) (B1) (B2) (A1)
                 (B2) (A2) (A2) (B1) (B2) (A1) (B1) (A1) (B2) (A2)
                 (A1) (A2) (B2) (A1) (B1) (A1) (B2) (B2) (A1) (B2)
                 (A2) (A1) (A1) (B2) (A1) (B2) (B1) (A1) (A1) (B2)
                 (B2) (A2) (B2) (A1) (A1) (A1) (B2) (B2) (A1) (A1)
                 (B2) (B1) (B2) (A1) (B1) (A2) (A1) (B2) (B2) (A1)
                 (B2) (A1) (A1) (B2) (A1) (B2) (B1) (B2) (A2) (B2)
                 (B1) (A1) (A2) (B1) (A2) (A1) (B2) (B1) (A2) (B1)
                 (A1) (B2) (B1) (A2) (B2) (A1) (B1) (B2) (B1) (A2)
                 (B2) (B1) (A1) (B1) (A2) (A2) (A1) (A2) (B2) (A1)
                 (B1) (A2) (A1) (B1) (B2) (B1) (B2) (A2) (A1) (B2)
                 (A2) (A1) (B2) (A2) (A1) (B2) (A2) (A1) (B1) (A1)
                 (B2) (A1) (B2) (B2) (A1) (B1) (B2) (A2) (A1) (B1)
                 (B2) (B1) (B2) (A2) (A1) (A2) (A1) (B2) (B1) (B2)
                 (B2) (A1) (A1) (A1) (B2) (A1) (A2) (B1) (A2) (B2)
                 (A1) (B2) (A1) (B2) (A2) (A1) (B2) (A1) (A1) (A1)
                 (B2) (B2) (A1) (B2) (A1) (A1) (B2) (A1) (B2) (B2)
                 (B2) (A1) (B2) (A1) (B2) (A1) (B2) (A1) (B2) (B2)
                 (A1) (B2) (A1) (B2) (B2) (A1) (B2) (A1) (B2) (A1)
                 (B2) (B2) (A1) (B2) (A1) (B2) (B2) (A1) (B2) (A1)
                 (B2) (A1) (A1) (B2) (A1) (B2) (A1) (B2) (A1) (A1)
                 (B2) (A1) (B2) (B2) (B2) (A1) (A1) (B2) (A1) (B2)
                 (A1) (B2) (A1) (B2) (A1) (B2) (B2) (A1) (A1) (A1)
                 (B2) (B2) (A1) (B2) (B2) (A1) (B2) (A1)
 The electronic state is 1-A1.
 Alpha  occ. eigenvalues -- -255.52597 -29.93542 -25.73891 -25.72043 -25.71091
 Alpha  occ. eigenvalues --  -14.20240 -14.20240 -14.18984 -14.18984 -10.10297
 Alpha  occ. eigenvalues --  -10.10297 -10.09293 -10.09253 -10.09114 -10.09114
 Alpha  occ. eigenvalues --  -10.07515 -10.07515 -10.07509 -10.07509 -10.07440
 Alpha  occ. eigenvalues --  -10.07440 -10.07390 -10.07369 -10.07357 -10.07357
 Alpha  occ. eigenvalues --  -10.07276 -10.07275 -10.07088 -10.07046 -10.06966
 Alpha  occ. eigenvalues --  -10.06965 -10.06368 -10.06368 -10.06232 -10.06232
 Alpha  occ. eigenvalues --  -10.06221 -10.06221 -10.06178 -10.06178 -10.06071
 Alpha  occ. eigenvalues --  -10.06071 -10.06056 -10.06056 -10.04288 -10.04288
 Alpha  occ. eigenvalues --   -3.37926  -2.14987  -2.12378  -2.10804  -0.92977
 Alpha  occ. eigenvalues --   -0.90530  -0.87444  -0.86781  -0.86467  -0.84445
 Alpha  occ. eigenvalues --   -0.83018  -0.81799  -0.81400  -0.77333  -0.77276
 Alpha  occ. eigenvalues --   -0.75581  -0.74360  -0.74275  -0.72890  -0.72269
 Alpha  occ. eigenvalues --   -0.70987  -0.69913  -0.68757  -0.67988  -0.67474
 Alpha  occ. eigenvalues --   -0.62452  -0.61552  -0.61434  -0.61121  -0.60073
 Alpha  occ. eigenvalues --   -0.58322  -0.58301  -0.56262  -0.55683  -0.53120
 Alpha  occ. eigenvalues --   -0.52763  -0.52241  -0.51846  -0.49822  -0.48959
 Alpha  occ. eigenvalues --   -0.48857  -0.48217  -0.47376  -0.46667  -0.46478
 Alpha  occ. eigenvalues --   -0.45453  -0.44751  -0.44060  -0.43160  -0.42284
 Alpha  occ. eigenvalues --   -0.41951  -0.41107  -0.40718  -0.40320  -0.39772
 Alpha  occ. eigenvalues --   -0.39758  -0.39128  -0.38768  -0.38294  -0.38293
 Alpha  occ. eigenvalues --   -0.37989  -0.37689  -0.37317  -0.36606  -0.35839
 Alpha  occ. eigenvalues --   -0.35632  -0.35203  -0.34750  -0.34365  -0.34199
 Alpha  occ. eigenvalues --   -0.33724  -0.33440  -0.32549  -0.32502  -0.32335
 Alpha  occ. eigenvalues --   -0.31684  -0.31330  -0.31087  -0.30685  -0.29919
 Alpha  occ. eigenvalues --   -0.28863  -0.28319  -0.28141  -0.28022  -0.26800
 Alpha  occ. eigenvalues --   -0.25837  -0.25543  -0.24969  -0.24919  -0.23113
 Alpha  occ. eigenvalues --   -0.22892  -0.22571  -0.19504  -0.19305  -0.17761
 Alpha  occ. eigenvalues --   -0.16381  -0.16326  -0.12666  -0.12646
 Alpha virt. eigenvalues --   -0.11686  -0.07929  -0.07200  -0.05558  -0.03717
 Alpha virt. eigenvalues --   -0.03189  -0.02996  -0.02770  -0.01685  -0.00885
 Alpha virt. eigenvalues --    0.01057   0.03556   0.04545   0.04828   0.05136
 Alpha virt. eigenvalues --    0.05592   0.07870   0.08276   0.08361   0.09068
 Alpha virt. eigenvalues --    0.09622   0.09789   0.09929   0.11046   0.11418
 Alpha virt. eigenvalues --    0.12068   0.13292   0.13423   0.13490   0.13968
 Alpha virt. eigenvalues --    0.15133   0.16125   0.16240   0.16921   0.17628
 Alpha virt. eigenvalues --    0.18238   0.19270   0.20131   0.20598   0.20828
 Alpha virt. eigenvalues --    0.20881   0.21377   0.21835   0.22576   0.22594
 Alpha virt. eigenvalues --    0.23581   0.24199   0.24210   0.24954   0.25269
 Alpha virt. eigenvalues --    0.25850   0.26233   0.26889   0.26928   0.27129
 Alpha virt. eigenvalues --    0.28322   0.28807   0.29620   0.29941   0.30265
 Alpha virt. eigenvalues --    0.31626   0.32189   0.33285   0.33464   0.33889
 Alpha virt. eigenvalues --    0.34749   0.35823   0.36571   0.37572   0.37689
 Alpha virt. eigenvalues --    0.39800   0.39824   0.41548   0.41688   0.42038
 Alpha virt. eigenvalues --    0.44536   0.45259   0.45848   0.45891   0.46590
 Alpha virt. eigenvalues --    0.46614   0.47697   0.48885   0.49557   0.50022
 Alpha virt. eigenvalues --    0.50436   0.51031   0.51973   0.52121   0.52615
 Alpha virt. eigenvalues --    0.52745   0.53160   0.53399   0.53785   0.54265
 Alpha virt. eigenvalues --    0.54747   0.55182   0.55336   0.55393   0.55564
 Alpha virt. eigenvalues --    0.56061   0.56106   0.56555   0.56597   0.56860
 Alpha virt. eigenvalues --    0.57024   0.57266   0.57739   0.57919   0.58068
 Alpha virt. eigenvalues --    0.58361   0.58465   0.59230   0.59501   0.59952
 Alpha virt. eigenvalues --    0.60306   0.60468   0.60720   0.60732   0.60829
 Alpha virt. eigenvalues --    0.60889   0.61042   0.61086   0.61287   0.61408
 Alpha virt. eigenvalues --    0.61611   0.61730   0.62398   0.62512   0.63153
 Alpha virt. eigenvalues --    0.63689   0.63721   0.64138   0.65531   0.66318
 Alpha virt. eigenvalues --    0.67045   0.67098   0.67223   0.67703   0.68504
 Alpha virt. eigenvalues --    0.69305   0.70211   0.70397   0.70827   0.73637
 Alpha virt. eigenvalues --    0.73725   0.74140   0.74343   0.74582   0.75445
 Alpha virt. eigenvalues --    0.76254   0.76888   0.77962   0.78851   0.79684
 Alpha virt. eigenvalues --    0.79732   0.79772   0.79839   0.80040   0.80755
 Alpha virt. eigenvalues --    0.81195   0.81483   0.81531   0.83855   0.84290
 Alpha virt. eigenvalues --    0.84408   0.84709   0.85191   0.85580   0.86718
 Alpha virt. eigenvalues --    0.86740   0.86923   0.87263   0.88075   0.88077
 Alpha virt. eigenvalues --    0.88550   0.88873   0.90085   0.90605   0.91440
 Alpha virt. eigenvalues --    0.91673   0.92481   0.92641   0.93799   0.94135
 Alpha virt. eigenvalues --    0.94839   0.95043   0.95376   0.95800   0.96363
 Alpha virt. eigenvalues --    0.96431   0.96878   0.97378   0.98091   0.98452
 Alpha virt. eigenvalues --    0.99781   1.00879   1.01717   1.02769   1.03626
 Alpha virt. eigenvalues --    1.04594   1.04946   1.05659   1.05951   1.06857
 Alpha virt. eigenvalues --    1.07437   1.08326   1.09066   1.09957   1.12634
 Alpha virt. eigenvalues --    1.12864   1.13228   1.14022   1.14339   1.16681
 Alpha virt. eigenvalues --    1.16772   1.16908   1.17070   1.17335   1.19278
 Alpha virt. eigenvalues --    1.19444   1.19873   1.20655   1.20996   1.21015
 Alpha virt. eigenvalues --    1.21123   1.21261   1.21484   1.22963   1.23097
 Alpha virt. eigenvalues --    1.23307   1.23474   1.24190   1.24653   1.25745
 Alpha virt. eigenvalues --    1.25839   1.26090   1.26673   1.27540   1.27605
 Alpha virt. eigenvalues --    1.28000   1.28140   1.30581   1.33759   1.34869
 Alpha virt. eigenvalues --    1.34948   1.35375   1.35603   1.36071   1.36574
 Alpha virt. eigenvalues --    1.37567   1.37866   1.38785   1.39726   1.40706
 Alpha virt. eigenvalues --    1.41318   1.41835   1.43385   1.43514   1.43684
 Alpha virt. eigenvalues --    1.43886   1.44274   1.44831   1.45213   1.45216
 Alpha virt. eigenvalues --    1.46232   1.46942   1.46965   1.46991   1.47051
 Alpha virt. eigenvalues --    1.47088   1.47148   1.48489   1.49631   1.51742
 Alpha virt. eigenvalues --    1.52035   1.53881   1.56177   1.56246   1.56885
 Alpha virt. eigenvalues --    1.58654   1.59666   1.60017   1.60624   1.60919
 Alpha virt. eigenvalues --    1.60962   1.64177   1.64671   1.65589   1.67297
 Alpha virt. eigenvalues --    1.68248   1.69982   1.70117   1.70749   1.71739
 Alpha virt. eigenvalues --    1.72074   1.72681   1.72897   1.73615   1.74461
 Alpha virt. eigenvalues --    1.74879   1.74969   1.75280   1.76246   1.76286
 Alpha virt. eigenvalues --    1.77229   1.77575   1.78020   1.78282   1.78562
 Alpha virt. eigenvalues --    1.79431   1.80692   1.80944   1.81539   1.81783
 Alpha virt. eigenvalues --    1.83251   1.83416   1.84713   1.84939   1.87087
 Alpha virt. eigenvalues --    1.87358   1.87446   1.88004   1.88724   1.89323
 Alpha virt. eigenvalues --    1.89723   1.90102   1.90959   1.91320   1.91623
 Alpha virt. eigenvalues --    1.92430   1.92646   1.93398   1.93402   1.94205
 Alpha virt. eigenvalues --    1.96576   1.96705   1.98864   1.99996   2.01243
 Alpha virt. eigenvalues --    2.01441   2.02464   2.02764   2.04102   2.05214
 Alpha virt. eigenvalues --    2.05233   2.05881   2.06099   2.06790   2.07058
 Alpha virt. eigenvalues --    2.07854   2.10075   2.10435   2.10828   2.12110
 Alpha virt. eigenvalues --    2.12563   2.14307   2.14664   2.14925   2.16081
 Alpha virt. eigenvalues --    2.16136   2.17466   2.17779   2.18435   2.18491
 Alpha virt. eigenvalues --    2.18921   2.19472   2.19744   2.21259   2.23022
 Alpha virt. eigenvalues --    2.23354   2.24020   2.24228   2.24460   2.25592
 Alpha virt. eigenvalues --    2.26140   2.26427   2.27302   2.27335   2.28082
 Alpha virt. eigenvalues --    2.28252   2.28312   2.29224   2.29629   2.30075
 Alpha virt. eigenvalues --    2.31388   2.31694   2.32279   2.33586   2.34248
 Alpha virt. eigenvalues --    2.34457   2.36253   2.36562   2.36863   2.37813
 Alpha virt. eigenvalues --    2.38575   2.39209   2.40114   2.40780   2.41486
 Alpha virt. eigenvalues --    2.41909   2.42244   2.43572   2.44600   2.46565
 Alpha virt. eigenvalues --    2.46664   2.48446   2.48983   2.50703   2.50746
 Alpha virt. eigenvalues --    2.51674   2.53029   2.53998   2.55514   2.56047
 Alpha virt. eigenvalues --    2.56493   2.56972   2.60823   2.61477   2.62512
 Alpha virt. eigenvalues --    2.62754   2.63980   2.64122   2.64147   2.65034
 Alpha virt. eigenvalues --    2.66735   2.67148   2.67171   2.67886   2.68930
 Alpha virt. eigenvalues --    2.69473   2.69613   2.69822   2.70635   2.72377
 Alpha virt. eigenvalues --    2.72778   2.73156   2.74086   2.76127   2.76722
 Alpha virt. eigenvalues --    2.77093   2.80520   2.80565   2.81714   2.82410
 Alpha virt. eigenvalues --    2.84294   2.85413   2.86562   2.87102   2.87936
 Alpha virt. eigenvalues --    2.88432   2.89981   2.90498   2.91051   2.91282
 Alpha virt. eigenvalues --    2.93322   2.93884   2.93979   2.95782   2.98473
 Alpha virt. eigenvalues --    3.00242   3.00452   3.01938   3.01949   3.04577
 Alpha virt. eigenvalues --    3.06505   3.07655   3.11835   3.12870   3.15016
 Alpha virt. eigenvalues --    3.15683   3.19555   3.20972   3.22030   3.26634
 Alpha virt. eigenvalues --    3.29966   3.31893   3.32616   3.36016   3.42714
 Alpha virt. eigenvalues --    3.44278   3.48332   3.53599   3.56694   3.62245
 Alpha virt. eigenvalues --    3.73859   3.81027   4.08222   4.11339   4.17604
 Alpha virt. eigenvalues --    4.18078   4.18869   4.20273   4.20619   4.20858
 Alpha virt. eigenvalues --    4.21093   4.22054   4.23188   4.24438   4.25089
 Alpha virt. eigenvalues --    4.26024   4.26454   4.27779   4.29019   4.30196
 Alpha virt. eigenvalues --    4.31947   4.37070   4.39370   4.40047   4.42863
 Alpha virt. eigenvalues --    4.45099   4.45699   4.46345   4.49577   4.50704
 Alpha virt. eigenvalues --    4.56633   4.58872   4.59579   4.60035   4.66025
 Alpha virt. eigenvalues --    4.71436   4.76461   4.79215   4.90843   4.97403
 Alpha virt. eigenvalues --    5.00687   5.22170  20.73876
          Condensed to atoms (all electrons):
 Mulliken charges:
               1
     1  N   -0.773913
     2  N   -0.891500
     3  C    0.298181
     4  C    0.015926
     5  C   -0.001187
     6  C    0.023215
     7  C    0.064628
     8  C   -0.241164
     9  C    0.096976
    10  C   -0.272985
    11  C    0.413513
    12  C    0.013449
    13  C    0.055468
    14  C    0.089848
    15  C    0.066283
    16  C   -0.245256
    17  C   -0.173225
    18  C   -0.247457
    19  C   -0.168537
    20  C   -0.248643
    21  C   -0.247457
    22  C   -0.168537
    23  C   -0.248643
    24  C    0.096976
    25  C   -0.272985
    26  C    0.413513
    27  C    0.013449
    28  C    0.055468
    29  C    0.089848
    30  C    0.066283
    31  C   -0.245256
    32  C   -0.173225
    33  N   -0.773913
    34  N   -0.891500
    35  C    0.298181
    36  C    0.015926
    37  C   -0.001187
    38  C    0.023215
    39  C    0.064628
    40  C   -0.241164
    41  H    0.329108
    42  H    0.165810
    43  H    0.149619
    44  H    0.156924
    45  H    0.165444
    46  H    0.174156
    47  H    0.169267
    48  H    0.175680
    49  H    0.166652
    50  H    0.169267
    51  H    0.175680
    52  H    0.166652
    53  H    0.149619
    54  H    0.156924
    55  H    0.165444
    56  H    0.174156
    57  H    0.329108
    58  H    0.165810
    59  Fe   0.947442
 Sum of Mulliken charges =  -0.00000
 Mulliken charges with hydrogens summed into heavy atoms:
               1
     1  N   -0.444806
     2  N   -0.891500
     3  C    0.298181
     4  C    0.015926
     5  C   -0.001187
     6  C    0.023215
     7  C    0.064628
     8  C   -0.075354
     9  C    0.246595
    10  C   -0.116061
    11  C    0.413513
    12  C    0.013449
    13  C    0.055468
    14  C    0.089848
    15  C    0.066283
    16  C   -0.079812
    17  C    0.000931
    18  C   -0.078190
    19  C    0.007143
    20  C   -0.081991
    21  C   -0.078190
    22  C    0.007143
    23  C   -0.081991
    24  C    0.246595
    25  C   -0.116061
    26  C    0.413513
    27  C    0.013449
    28  C    0.055468
    29  C    0.089848
    30  C    0.066283
    31  C   -0.079812
    32  C    0.000931
    33  N   -0.444806
    34  N   -0.891500
    35  C    0.298181
    36  C    0.015926
    37  C   -0.001187
    38  C    0.023215
    39  C    0.064628
    40  C   -0.075354
    59  Fe   0.947442
 Electronic spatial extent (au):  <R**2>=          19538.3722
 Charge=              0.0000 electrons
 Dipole moment (field-independent basis, Debye):
    X=             -0.0000    Y=              0.0000    Z=              0.9059  Tot=              0.9059
 Quadrupole moment (field-independent basis, Debye-Ang):
   XX=           -246.8075   YY=           -202.2292   ZZ=           -191.9704
   XY=              0.0000   XZ=             -0.0000   YZ=             -0.0000
 Traceless Quadrupole moment (field-independent basis, Debye-Ang):
   XX=            -33.1385   YY=             11.4399   ZZ=             21.6987
   XY=              0.0000   XZ=             -0.0000   YZ=             -0.0000
 Octapole moment (field-independent basis, Debye-Ang**2):
  XXX=              0.0000  YYY=              0.0000  ZZZ=            213.6628  XYY=              0.0000
  XXY=             -0.0000  XXZ=             42.2014  XZZ=              0.0000  YZZ=              0.0000
  YYZ=             34.2784  XYZ=              0.0000
 Hexadecapole moment (field-independent basis, Debye-Ang**3):
 XXXX=           -257.4831 YYYY=         -11075.1729 ZZZZ=         -11314.7127 XXXY=             -0.0000
 XXXZ=             -0.0000 YYYX=             -0.0000 YYYZ=              0.0000 ZZZX=             -0.0000
 ZZZY=             -0.0000 XXYY=          -2303.0189 XXZZ=          -2504.5622 YYZZ=          -3863.2857
 XXYZ=             -0.0000 YYXZ=             -0.0000 ZZXY=             -0.0000
 N-N= 4.976965194973D+03 E-N=-1.667941079442D+04  KE= 2.852120926281D+03
 Symmetry A1   KE= 1.738762671592D+03
 Symmetry A2   KE= 2.555891309902D+01
 Symmetry B1   KE= 1.763198416989D+02
 Symmetry B2   KE= 9.114794998914D+02
 There are a total of     1372166 grid points.
 ElSum from          density=      287.9998905271
 ElSum from atomic densities=      287.9986458003

 Hirshfeld populations at iteration   1 (CX, CA, CB, DipXYZ):
               1          2          3          4          5          6
     1  N    0.000000   3.579628   3.579628  -0.000000   0.053382   0.093459
     2  N    0.000000   3.549578   3.549578  -0.000000   0.057587  -0.088102
     3  C    0.000000   2.980552   2.980552  -0.000000   0.034256   0.050683
     4  C    0.000000   3.005707   3.005707   0.000000   0.013764  -0.012677
     5  C    0.000000   3.002898   3.002898   0.000000   0.016750  -0.009370
     6  C    0.000000   2.999944   2.999944   0.000000  -0.005859   0.012329
     7  C    0.000000   2.998927   2.998927   0.000000  -0.034952   0.009895
     8  C    0.000000   3.020420   3.020420   0.000000  -0.036463  -0.048446
     9  C    0.000000   2.990964   2.990964   0.000000  -0.014355   0.063931
    10  C    0.000000   3.045748   3.045748   0.000000   0.039652  -0.014729
    11  C    0.000000   2.970479   2.970479   0.000000  -0.034570  -0.039164
    12  C    0.000000   3.000832   3.000832   0.000000  -0.025661   0.027185
    13  C    0.000000   3.000378   3.000378  -0.000000  -0.012767  -0.003888
    14  C    0.000000   2.998603   2.998603  -0.000000  -0.028002  -0.029014
    15  C    0.000000   2.999088   2.999088  -0.000000   0.006772   0.039724
    16  C    0.000000   3.020687   3.020687  -0.000000   0.060131   0.003661
    17  C    0.000000   3.020436   3.020436   0.000000   0.039119  -0.061845
    18  C    0.000000   3.019471   3.019471   0.000000   0.022184   0.056514
    19  C    0.000000   3.019474   3.019474   0.000000   0.073397   0.000732
    20  C    0.000000   3.019710   3.019710   0.000000   0.028265  -0.052628
    21  C    0.000000   3.019471   3.019471   0.000000  -0.022184   0.056514
    22  C    0.000000   3.019474   3.019474   0.000000  -0.073397   0.000732
    23  C    0.000000   3.019710   3.019710  -0.000000  -0.028265  -0.052628
    24  C    0.000000   2.990964   2.990964   0.000000   0.014355   0.063931
    25  C    0.000000   3.045748   3.045748   0.000000  -0.039652  -0.014729
    26  C    0.000000   2.970479   2.970479   0.000000   0.034570  -0.039164
    27  C    0.000000   3.000832   3.000832   0.000000   0.025661   0.027185
    28  C    0.000000   3.000378   3.000378   0.000000   0.012767  -0.003888
    29  C    0.000000   2.998603   2.998603  -0.000000   0.028002  -0.029014
    30  C    0.000000   2.999088   2.999088  -0.000000  -0.006772   0.039724
    31  C    0.000000   3.020687   3.020687  -0.000000  -0.060131   0.003661
    32  C    0.000000   3.020436   3.020436   0.000000  -0.039119  -0.061845
    33  N    0.000000   3.579628   3.579628   0.000000  -0.053382   0.093459
    34  N    0.000000   3.549578   3.549578   0.000000  -0.057587  -0.088102
    35  C    0.000000   2.980552   2.980552   0.000000  -0.034256   0.050683
    36  C    0.000000   3.005707   3.005707   0.000000  -0.013764  -0.012677
[...]
 Alpha virt. eigenvalues --    2.67669   2.68420   2.68987   2.70190   2.71498
 Alpha virt. eigenvalues --    2.72102   2.73349   2.73973   2.75443   2.76705
 Alpha virt. eigenvalues --    2.78922   2.79527   2.79881   2.80671   2.81299
 Alpha virt. eigenvalues --    2.83492   2.84804   2.85236   2.86649   2.87854
 Alpha virt. eigenvalues --    2.88273   2.89225   2.89583   2.90144   2.90977
 Alpha virt. eigenvalues --    2.92268   2.92316   2.93407   2.95200   2.99133
 Alpha virt. eigenvalues --    3.00044   3.00912   3.02873   3.03912   3.04853
 Alpha virt. eigenvalues --    3.06522   3.08446   3.11945   3.12237   3.15233
 Alpha virt. eigenvalues --    3.19553   3.20396   3.22541   3.22591   3.25018
 Alpha virt. eigenvalues --    3.30633   3.30759   3.30990   3.38867   3.40024
 Alpha virt. eigenvalues --    3.41058   3.47154   3.52545   3.54596   3.58906
 Alpha virt. eigenvalues --    3.72832   3.77426   4.09280   4.11355   4.16611
 Alpha virt. eigenvalues --    4.17273   4.18152   4.19253   4.19587   4.19975
 Alpha virt. eigenvalues --    4.20116   4.21954   4.22749   4.23708   4.24983
 Alpha virt. eigenvalues --    4.25681   4.26015   4.27478   4.28767   4.29741
 Alpha virt. eigenvalues --    4.31113   4.36685   4.38534   4.40425   4.42166
 Alpha virt. eigenvalues --    4.44648   4.45289   4.46105   4.48946   4.50251
 Alpha virt. eigenvalues --    4.55863   4.57343   4.58039   4.59444   4.64714
 Alpha virt. eigenvalues --    4.70057   4.75131   4.78315   4.88762   4.95592
 Alpha virt. eigenvalues --    4.99490   5.20452  20.81983
          Condensed to atoms (all electrons):
 Mulliken charges:
               1
     1  N   -0.735307
     2  N   -0.881249
     3  C    0.289276
     4  C    0.018682
     5  C    0.003717
     6  C    0.004972
     7  C    0.069254
     8  C   -0.238073
     9  C    0.068487
    10  C   -0.257470
    11  C    0.389206
    12  C    0.036724
    13  C    0.039044
    14  C    0.090215
    15  C    0.071406
    16  C   -0.240848
    17  C   -0.174165
    18  C   -0.244968
    19  C   -0.168316
    20  C   -0.245236
    21  C   -0.244968
    22  C   -0.168316
    23  C   -0.245236
    24  C    0.068487
    25  C   -0.257470
    26  C    0.389206
    27  C    0.036724
    28  C    0.039044
    29  C    0.090215
    30  C    0.071406
    31  C   -0.240848
    32  C   -0.174165
    33  N   -0.735307
    34  N   -0.881249
    35  C    0.289276
    36  C    0.018682
    37  C    0.003717
    38  C    0.004972
    39  C    0.069254
    40  C   -0.238073
    41  H    0.310418
    42  H    0.165199
    43  H    0.158109
    44  H    0.156519
    45  H    0.164632
    46  H    0.174277
    47  H    0.168798
    48  H    0.174824
    49  H    0.167134
    50  H    0.168798
    51  H    0.174824
    52  H    0.167134
    53  H    0.158109
    54  H    0.156519
    55  H    0.164632
    56  H    0.174277
    57  H    0.310418
    58  H    0.165199
    59  Fe   0.929471
 Sum of Mulliken charges =  -0.00000
 Mulliken charges with hydrogens summed into heavy atoms:
               1
     1  N   -0.424889
     2  N   -0.881249
     3  C    0.289276
     4  C    0.018682
     5  C    0.003717
     6  C    0.004972
     7  C    0.069254
     8  C   -0.072874
     9  C    0.226596
    10  C   -0.100951
    11  C    0.389206
    12  C    0.036724
    13  C    0.039044
    14  C    0.090215
    15  C    0.071406
    16  C   -0.076216
    17  C    0.000113
    18  C   -0.076169
    19  C    0.006509
    20  C   -0.078102
    21  C   -0.076169
    22  C    0.006509
    23  C   -0.078102
    24  C    0.226596
    25  C   -0.100951
    26  C    0.389206
    27  C    0.036724
    28  C    0.039044
    29  C    0.090215
    30  C    0.071406
    31  C   -0.076216
    32  C    0.000113
    33  N   -0.424889
    34  N   -0.881249
    35  C    0.289276
    36  C    0.018682
    37  C    0.003717
    38  C    0.004972
    39  C    0.069254
    40  C   -0.072874
    59  Fe   0.929471
 Electronic spatial extent (au):  <R**2>=          19551.6382
 Charge=              0.0000 electrons
 Dipole moment (field-independent basis, Debye):
    X=             -0.0000    Y=              0.0000    Z=              0.8332  Tot=              0.8332
 Quadrupole moment (field-independent basis, Debye-Ang):
   XX=           -247.9967   YY=           -201.9242   ZZ=           -192.5790
   XY=              0.0000   XZ=             -0.0000   YZ=             -0.0000
 Traceless Quadrupole moment (field-independent basis, Debye-Ang):
   XX=            -33.8300   YY=             12.2424   ZZ=             21.5876
   XY=              0.0000   XZ=             -0.0000   YZ=             -0.0000
 Octapole moment (field-independent basis, Debye-Ang**2):
  XXX=              0.0000  YYY=              0.0000  ZZZ=            207.4941  XYY=              0.0000
  XXY=             -0.0000  XXZ=             42.0838  XZZ=              0.0000  YZZ=             -0.0000
  YYZ=             36.0797  XYZ=              0.0000
 Hexadecapole moment (field-independent basis, Debye-Ang**3):
 XXXX=           -259.3737 YYYY=         -11093.6366 ZZZZ=         -11407.5815 XXXY=             -0.0000
 XXXZ=             -0.0000 YYYX=             -0.0000 YYYZ=             -0.0000 ZZZX=             -0.0000
 ZZZY=             -0.0000 XXYY=          -2317.1609 XXZZ=          -2524.9028 YYZZ=          -3863.7876
 XXYZ=              0.0000 YYXZ=             -0.0000 ZZXY=             -0.0000
 N-N= 4.980153656384D+03 E-N=-1.668457207451D+04  KE= 2.850961857226D+03
 Symmetry A1   KE= 1.738113755753D+03
 Symmetry A2   KE= 2.588833543444D+01
 Symmetry B1   KE= 1.756080548311D+02
 Symmetry B2   KE= 9.113517112079D+02
 There are a total of     1372166 grid points.
 ElSum from          density=      287.9999045578
 ElSum from atomic densities=      287.9986941565

 Hirshfeld populations at iteration   1 (CX, CA, CB, DipXYZ):
               1          2          3          4          5          6
     1  N    0.000000   3.576214   3.576214  -0.000000   0.060723   0.093298
     2  N    0.000000   3.548633   3.548633   0.000000   0.064442  -0.087105
     3  C    0.000000   2.981652   2.981652   0.000000   0.040952   0.046285
     4  C    0.000000   3.005237   3.005237   0.000000   0.008356  -0.013127
     5  C    0.000000   3.002596   3.002596   0.000000   0.011513  -0.002683
     6  C    0.000000   2.999742   2.999742   0.000000  -0.001430   0.005204
     7  C    0.000000   2.999305   2.999305   0.000000  -0.031539   0.012718
     8  C    0.000000   3.020155   3.020155   0.000000  -0.036114  -0.045496
     9  C    0.000000   2.993256   2.993256   0.000000  -0.019664   0.068286
    10  C    0.000000   3.041276   3.041276   0.000000   0.039850  -0.018419
    11  C    0.000000   2.972305   2.972305   0.000000  -0.039165  -0.038591
    12  C    0.000000   3.000809   3.000809   0.000000  -0.025420   0.021899
    13  C    0.000000   3.000448   3.000448   0.000000  -0.003559  -0.002972
    14  C    0.000000   2.998979   2.998979  -0.000000  -0.027460  -0.025958
    15  C    0.000000   2.999416   2.999416  -0.000000   0.002702   0.038325
    16  C    0.000000   3.020402   3.020402   0.000000   0.057467   0.004984
    17  C    0.000000   3.020828   3.020828   0.000000   0.037606  -0.059472
    18  C    0.000000   3.019232   3.019232   0.000000   0.017736   0.055126
    19  C    0.000000   3.020030   3.020030   0.000000   0.069112   0.000637
    20  C    0.000000   3.019594   3.019594   0.000000   0.026308  -0.051858
    21  C    0.000000   3.019232   3.019232   0.000000  -0.017736   0.055126
    22  C    0.000000   3.020030   3.020030   0.000000  -0.069112   0.000637
    23  C    0.000000   3.019594   3.019594   0.000000  -0.026308  -0.051858
    24  C    0.000000   2.993256   2.993256   0.000000   0.019664   0.068286
    25  C    0.000000   3.041276   3.041276   0.000000  -0.039850  -0.018419
    26  C    0.000000   2.972305   2.972305   0.000000   0.039165  -0.038591
    27  C    0.000000   3.000809   3.000809   0.000000   0.025420   0.021899
    28  C    0.000000   3.000448   3.000448   0.000000   0.003559  -0.002972
    29  C    0.000000   2.998979   2.998979   0.000000   0.027460  -0.025958
    30  C    0.000000   2.999416   2.999416  -0.000000  -0.002702   0.038325
    31  C    0.000000   3.020402   3.020402  -0.000000  -0.057467   0.004984
    32  C    0.000000   3.020828   3.020828   0.000000  -0.037606  -0.059472
    33  N    0.000000   3.576214   3.576214   0.000000  -0.060723   0.093298
    34  N    0.000000   3.548633   3.548633   0.000000  -0.064442  -0.087105
    35  C    0.000000   2.981652   2.981652   0.000000  -0.040952   0.046285
    36  C    0.000000   3.005237   3.005237   0.000000  -0.008356  -0.013127
    37  C    0.000000   3.002596   3.002596   0.000000  -0.011513  -0.002683
    38  C    0.000000   2.999742   2.999742   0.000000   0.001430   0.005204
    39  C    0.000000   2.999305   2.999305   0.000000   0.031539   0.012718
    40  C    0.000000   3.020155   3.020155   0.000000   0.036114  -0.045496
    41  H    0.000000   0.447357   0.447357  -0.000000  -0.031672   0.174957
    42  H    0.000000   0.480546   0.480546   0.000000  -0.050593  -0.133979
    43  H    0.000000   0.480141   0.480141   0.000000   0.080065   0.123034
    44  H    0.000000   0.482377   0.482377   0.000000   0.143884   0.024235
    45  H    0.000000   0.480611   0.480611   0.000000   0.141792  -0.019876
    46  H    0.000000   0.478128   0.478128   0.000000   0.078380  -0.132568
    47  H    0.000000   0.479756   0.479756   0.000000   0.087509   0.115558
    48  H    0.000000   0.477917   0.477917   0.000000   0.154137   0.006549
    49  H    0.000000   0.480239   0.480239   0.000000   0.094479  -0.108595
    50  H    0.000000   0.479756   0.479756   0.000000  -0.087509   0.115558
    51  H    0.000000   0.477917   0.477917   0.000000  -0.154137   0.006549
    52  H    0.000000   0.480239   0.480239   0.000000  -0.094479  -0.108595
    53  H    0.000000   0.480141   0.480141   0.000000  -0.080065   0.123034
    54  H    0.000000   0.482377   0.482377   0.000000  -0.143884   0.024235
    55  H    0.000000   0.480611   0.480611   0.000000  -0.141792  -0.019876
    56  H    0.000000   0.478128   0.478128   0.000000  -0.078380  -0.132568
    57  H    0.000000   0.447357   0.447357  -0.000000   0.031672   0.174957
    58  H    0.000000   0.480546   0.480546   0.000000   0.050593  -0.133979
    59  Fe   0.000000  12.945585  12.945585   0.000000   0.000000  -0.020507
       Tot   0.000001 143.999952 143.999952   0.000000  -0.000000   0.080283

 Dip from Atomic Chgs             -0.000000   0.000000   0.247515
         Total Dipole              0.000000   0.000000   0.327798

 Hirshfeld charges, spin densities, dipoles, and CM5 charges using IRadAn=      5:
              Q-H        S-H        Dx         Dy         Dz        Q-CM5   
     1  N   -0.152428   0.000000  -0.000000   0.060723   0.093298  -0.578018
     2  N   -0.097267   0.000000   0.000000   0.064442  -0.087105  -0.382771
     3  C    0.036695   0.000000   0.000000   0.040952   0.046285   0.101545
     4  C   -0.010475   0.000000   0.000000   0.008356  -0.013127  -0.005879
     5  C   -0.005192   0.000000   0.000000   0.011513  -0.002683  -0.004979
     6  C    0.000517   0.000000   0.000000  -0.001430   0.005204   0.000132
     7  C    0.001390   0.000000   0.000000  -0.031539   0.012718  -0.002985
     8  C   -0.040309   0.000000   0.000000  -0.036114  -0.045496  -0.093266
     9  C    0.013487   0.000000   0.000000  -0.019664   0.068286   0.027735
    10  C   -0.082552   0.000000   0.000000   0.039850  -0.018419  -0.127117
    11  C    0.055389   0.000000   0.000000  -0.039165  -0.038591   0.118379
    12  C   -0.001618   0.000000   0.000000  -0.025420   0.021899  -0.001464
    13  C   -0.000897   0.000000   0.000000  -0.003559  -0.002972   0.000373
    14  C    0.002043   0.000000  -0.000000  -0.027460  -0.025958  -0.002295
    15  C    0.001167   0.000000  -0.000000   0.002702   0.038325  -0.003195
    16  C   -0.040804   0.000000   0.000000   0.057467   0.004984  -0.093642
    17  C   -0.041656   0.000000   0.000000   0.037606  -0.059472  -0.096935
    18  C   -0.038465   0.000000   0.000000   0.017736   0.055126  -0.091548
    19  C   -0.040060   0.000000   0.000000   0.069112   0.000637  -0.095342
    20  C   -0.039188   0.000000   0.000000   0.026308  -0.051858  -0.092080
    21  C   -0.038465   0.000000   0.000000  -0.017736   0.055126  -0.091548
    22  C   -0.040060   0.000000   0.000000  -0.069112   0.000637  -0.095342
    23  C   -0.039188   0.000000   0.000000  -0.026308  -0.051858  -0.092080
    24  C    0.013487   0.000000   0.000000   0.019664   0.068286   0.027735
    25  C   -0.082552   0.000000   0.000000  -0.039850  -0.018419  -0.127117
    26  C    0.055389   0.000000   0.000000   0.039165  -0.038591   0.118379
    27  C   -0.001618   0.000000   0.000000   0.025420   0.021899  -0.001464
    28  C   -0.000897   0.000000   0.000000   0.003559  -0.002972   0.000373
    29  C    0.002043   0.000000   0.000000   0.027460  -0.025958  -0.002295
    30  C    0.001167   0.000000  -0.000000  -0.002702   0.038325  -0.003195
    31  C   -0.040804   0.000000  -0.000000  -0.057467   0.004984  -0.093642
    32  C   -0.041656   0.000000   0.000000  -0.037606  -0.059472  -0.096935
    33  N   -0.152428   0.000000   0.000000  -0.060723   0.093298  -0.578018
    34  N   -0.097267   0.000000   0.000000  -0.064442  -0.087105  -0.382771
    35  C    0.036695   0.000000   0.000000  -0.040952   0.046285   0.101545
    36  C   -0.010475   0.000000   0.000000  -0.008356  -0.013127  -0.005879
    37  C   -0.005192   0.000000   0.000000  -0.011513  -0.002683  -0.004979
    38  C    0.000517   0.000000   0.000000   0.001430   0.005204   0.000132
    39  C    0.001390   0.000000   0.000000   0.031539   0.012718  -0.002985
    40  C   -0.040309   0.000000   0.000000   0.036114  -0.045496  -0.093266
    41  H    0.105286   0.000000  -0.000000  -0.031672   0.174957   0.295099
    42  H    0.038907   0.000000   0.000000  -0.050593  -0.133979   0.096424
    43  H    0.039718   0.000000   0.000000   0.080065   0.123034   0.103918
    44  H    0.035245   0.000000   0.000000   0.143884   0.024235   0.094712
    45  H    0.038777   0.000000   0.000000   0.141792  -0.019876   0.096245
    46  H    0.043743   0.000000   0.000000   0.078380  -0.132568   0.099096
    47  H    0.040488   0.000000   0.000000   0.087509   0.115558   0.098124
    48  H    0.044166   0.000000   0.000000   0.154137   0.006549   0.099552
    49  H    0.039523   0.000000   0.000000   0.094479  -0.108595   0.096861
    50  H    0.040488   0.000000   0.000000  -0.087509   0.115558   0.098124
    51  H    0.044166   0.000000   0.000000  -0.154137   0.006549   0.099552
    52  H    0.039523   0.000000   0.000000  -0.094479  -0.108595   0.096861
    53  H    0.039718   0.000000   0.000000  -0.080065   0.123034   0.103918
    54  H    0.035245   0.000000   0.000000  -0.143884   0.024235   0.094712
    55  H    0.038777   0.000000   0.000000  -0.141792  -0.019876   0.096245
    56  H    0.043743   0.000000   0.000000  -0.078380  -0.132568   0.099096
    57  H    0.105286   0.000000  -0.000000   0.031672   0.174957   0.295099
    58  H    0.038907   0.000000   0.000000   0.050593  -0.133979   0.096424
    59  Fe   0.108831   0.000000   0.000000   0.000000  -0.020507   0.686739
       Tot   0.000095   0.000000   0.000000  -0.000000   0.080283   0.000095
 Hirshfeld charges with hydrogens summed into heavy atoms:
              Q-H       Q-CM5   
     1  N   -0.047142  -0.282919
     2  N   -0.097267  -0.382771
     3  C    0.036695   0.101545
     4  C   -0.010475  -0.005879
     5  C   -0.005192  -0.004979
     6  C    0.000517   0.000132
     7  C    0.001390  -0.002985
     8  C   -0.001402   0.003158
     9  C    0.053206   0.131653
    10  C   -0.047307  -0.032405
    11  C    0.055389   0.118379
    12  C   -0.001618  -0.001464
    13  C   -0.000897   0.000373
    14  C    0.002043  -0.002295
    15  C    0.001167  -0.003195
    16  C   -0.002027   0.002603
    17  C    0.002088   0.002161
    18  C    0.002023   0.006576
    19  C    0.004107   0.004210
    20  C    0.000334   0.004781
    21  C    0.002023   0.006576
    22  C    0.004107   0.004210
    23  C    0.000334   0.004781
    24  C    0.053206   0.131653
    25  C   -0.047307  -0.032405
    26  C    0.055389   0.118379
    27  C   -0.001618  -0.001464
    28  C   -0.000897   0.000373
    29  C    0.002043  -0.002295
    30  C    0.001167  -0.003195
    31  C   -0.002027   0.002603
    32  C    0.002088   0.002161
    33  N   -0.047142  -0.282919
    34  N   -0.097267  -0.382771
    35  C    0.036695   0.101545
    36  C   -0.010475  -0.005879
    37  C   -0.005192  -0.004979
    38  C    0.000517   0.000132
    39  C    0.001390  -0.002985
    40  C   -0.001402   0.003158
    59  Fe   0.108831   0.686739
 
 EQQ=  0.00000000000     EQD=  0.00000000000     EDD= 0.263189209676E-01
 EQQ+QD+DD= 0.263189209676E-01
 
 Unable to Open any file for archive entry.
 1\1\GINC-C0801A-S35\FOpt\RM06L\6-31G(d)\C36H18Fe1N4\WANGZHIYU\14-Dec-2
 022\0\\#n M06L/6-31G(d) Opt Geom=(AllCheck,Step=20) SCF=XQC Guess=Read
  Output=wfx Pop=Hirshfeld\\2a_fn4_e\\0,1\N,-1.2827089612,-5.0605540617
 ,0.\N,-1.292513385,-2.3852125814,0.\C,-0.699355744,-1.1258006869,0.\C,
 -1.4049615865,0.0783332524,0.\C,-0.7043642211,1.3151585263,0.\C,-1.435
 8202396,2.5434860808,0.\C,-0.7289613099,3.7804585673,0.\C,-1.470801335
 6,4.9694832655,0.\C,-2.6168734746,-4.9276647029,0.\C,-3.2787989819,-3.
 7164744814,0.\C,-2.6585598366,-2.4514226548,0.\C,-3.4659486403,-1.2347
 210069,0.\C,-2.8283416919,0.0363680134,0.\C,-3.5720214304,1.2452575368
 ,0.\C,-2.8622099686,2.5225909558,0.\C,-3.5445671003,3.742722018,0.\C,-
 2.8563030968,4.9488004282,0.\C,-4.8691932911,-1.259540357,0.\C,-5.6005
 216581,-0.081516069,0.\C,-4.968084047,1.1556567876,0.\C,4.8691932911,-
 1.259540357,0.\C,5.6005216581,-0.081516069,0.\C,4.968084047,1.15565678
 76,0.\C,2.6168734746,-4.9276647029,0.\C,3.2787989819,-3.7164744814,0.\
 C,2.6585598366,-2.4514226548,0.\C,3.4659486403,-1.2347210069,0.\C,2.82
 83416919,0.0363680134,0.\C,3.5720214304,1.2452575368,0.\C,2.8622099686
 ,2.5225909558,0.\C,3.5445671003,3.742722018,0.\C,2.8563030968,4.948800
 4282,0.\N,1.2827089612,-5.0605540617,0.\N,1.292513385,-2.3852125814,0.
 \C,0.699355744,-1.1258006869,0.\C,1.4049615865,0.0783332524,0.\C,0.704
 3642211,1.3151585263,0.\C,1.4358202396,2.5434860808,0.\C,0.7289613099,
 3.7804585673,0.\C,1.4708013356,4.9694832655,0.\H,-1.0162651498,-6.0467
 620494,0.\H,-0.9650149407,5.9311504069,0.\H,-3.2209714681,-5.838563412
 5,0.\H,-4.3607135063,-3.7648868328,0.\H,-4.6312328226,3.7620416384,0.\
 H,-3.4100821995,5.8857948175,0.\H,-5.4085818046,-2.2016705801,0.\H,-6.
 6880023417,-0.1276581544,0.\H,-5.579125225,2.0543744755,0.\H,5.4085818
 046,-2.2016705801,0.\H,6.6880023417,-0.1276581544,0.\H,5.579125225,2.0
 543744755,0.\H,3.2209714681,-5.8385634125,0.\H,4.3607135063,-3.7648868
 328,0.\H,4.6312328226,3.7620416384,0.\H,3.4100821995,5.8857948175,0.\H
 ,1.0162651498,-6.0467620494,0.\H,0.9650149407,5.9311504069,0.\Fe,0.,-3
 .7679482571,0.\\Version=ES64L-G16RevC.02\State=1-A1\HF=-2865.2767128\R
 MSD=6.495e-09\RMSF=6.397e-05\Dipole=0.,-0.3278082,0.\Quadrupole=9.1019
 338,16.0498778,-25.1518116,0.,0.,0.\PG=C02V [C2(Fe1),SGV(C36H18N4)]\\@
 The archive entry for this job was punched.

 Writing a WFNX file to "2step.wfx"


 THE MOST BEAUTIFUL EXPERIENCE WE CAN HAVE IS THE MYSTERIOUS.
 IT IS THE FUNDAMENTAL EMOTION WHICH STANDS AT AT THE CRADLE 
 OF TRUE ART AND TRUE SCIENCE.

                                    -- ALBERT EINSTEIN
 Job cpu time:       0 days  1 hours 30 minutes 55.6 seconds.
 Elapsed time:       0 days  0 hours 12 minutes  9.0 seconds.
 File lengths (MBytes):  RWF=    277 Int=      0 D2E=      0 Chk=     40 Scr=      1
 Normal termination of Gaussian 16 at Wed Dec 14 10:12:06 2022.
