
                                 *****************
                                 * O   R   C   A *
                                 *****************

                                            #,                                       
                                            ###                                      
                                            ####                                     
                                            #####                                    
                                            ######                                   
                                           ########,                                 
                                     ,,################,,,,,                         
                               ,,#################################,,                 
                          ,,##########################################,,             
                       ,#########################################, ''#####,          
                    ,#############################################,,   '####,        
                  ,##################################################,,,,####,       
                ,###########''''           ''''###############################       
              ,#####''   ,,,,##########,,,,          '''####'''          '####       
            ,##' ,,,,###########################,,,                        '##       
           ' ,,###''''                  '''############,,,                           
         ,,##''                                '''############,,,,        ,,,,,,###''
      ,#''                                            '''#######################'''  
     '                                                          ''''####''''         
             ,#######,   #######,   ,#######,      ##                                
            ,#'     '#,  ##    ##  ,#'     '#,    #''#        ######   ,####,        
            ##       ##  ##   ,#'  ##            #'  '#       #        #'  '#        
            ##       ##  #######   ##           ,######,      #####,   #    #        
            '#,     ,#'  ##    ##  '#,     ,#' ,#      #,         ##   #,  ,#        
             '#######'   ##     ##  '#######'  #'      '#     #####' # '####'        



                  #######################################################
                  #                        -***-                        #
                  #          Department of theory and spectroscopy      #
                  #    Directorship and core code : Frank Neese         #
                  #        Max Planck Institute fuer Kohlenforschung    #
                  #                Kaiser Wilhelm Platz 1               #
                  #                 D-45470 Muelheim/Ruhr               #
                  #                      Germany                        #
                  #                                                     #
                  #                  All rights reserved                #
                  #                        -***-                        #
                  #######################################################


                         Program Version 5.0.3 -  RELEASE  -


 With contributions from (in alphabetic order):
   Daniel Aravena         : Magnetic Suceptibility
   Michael Atanasov       : Ab Initio Ligand Field Theory (pilot matlab implementation)
   Alexander A. Auer      : GIAO ZORA, VPT2 properties, NMR spectrum
   Ute Becker             : Parallelization
   Giovanni Bistoni       : ED, misc. LED, open-shell LED, HFLD
   Martin Brehm           : Molecular dynamics
   Dmytro Bykov           : SCF Hessian
   Vijay G. Chilkuri      : MRCI spin determinant printing, contributions to CSF-ICE
   Dipayan Datta          : RHF DLPNO-CCSD density
   Achintya Kumar Dutta   : EOM-CC, STEOM-CC
   Dmitry Ganyushin       : Spin-Orbit,Spin-Spin,Magnetic field MRCI
   Miquel Garcia          : C-PCM and meta-GGA Hessian, CC/C-PCM, Gaussian charge scheme
   Yang Guo               : DLPNO-NEVPT2, F12-NEVPT2, CIM, IAO-localization
   Andreas Hansen         : Spin unrestricted coupled pair/coupled cluster methods
   Benjamin Helmich-Paris : MC-RPA, TRAH-SCF, COSX integrals
   Lee Huntington         : MR-EOM, pCC
   Robert Izsak           : Overlap fitted RIJCOSX, COSX-SCS-MP3, EOM
   Marcus Kettner         : VPT2
   Christian Kollmar      : KDIIS, OOCD, Brueckner-CCSD(T), CCSD density, CASPT2, CASPT2-K
   Simone Kossmann        : Meta GGA functionals, TD-DFT gradient, OOMP2, MP2 Hessian
   Martin Krupicka        : Initial AUTO-CI
   Lucas Lang             : DCDCAS
   Marvin Lechner         : AUTO-CI (C++ implementation), FIC-MRCC
   Dagmar Lenk            : GEPOL surface, SMD
   Dimitrios Liakos       : Extrapolation schemes; Compound Job, initial MDCI parallelization
   Dimitrios Manganas     : Further ROCIS development; embedding schemes
   Dimitrios Pantazis     : SARC Basis sets
   Anastasios Papadopoulos: AUTO-CI, single reference methods and gradients
   Taras Petrenko         : DFT Hessian,TD-DFT gradient, ASA, ECA, R-Raman, ABS, FL, XAS/XES, NRVS
   Peter Pinski           : DLPNO-MP2, DLPNO-MP2 Gradient
   Christoph Reimann      : Effective Core Potentials
   Marius Retegan         : Local ZFS, SOC
   Christoph Riplinger    : Optimizer, TS searches, QM/MM, DLPNO-CCSD(T), (RO)-DLPNO pert. Triples
   Tobias Risthaus        : Range-separated hybrids, TD-DFT gradient, RPA, STAB
   Michael Roemelt        : Original ROCIS implementation
   Masaaki Saitow         : Open-shell DLPNO-CCSD energy and density
   Barbara Sandhoefer     : DKH picture change effects
   Avijit Sen             : IP-ROCIS
   Kantharuban Sivalingam : CASSCF convergence, NEVPT2, FIC-MRCI
   Bernardo de Souza      : ESD, SOC TD-DFT
   Georgi Stoychev        : AutoAux, RI-MP2 NMR, DLPNO-MP2 response
   Willem Van den Heuvel  : Paramagnetic NMR
   Boris Wezisla          : Elementary symmetry handling
   Frank Wennmohs         : Technical directorship


 We gratefully acknowledge several colleagues who have allowed us to
 interface, adapt or use parts of their codes:
   Stefan Grimme, W. Hujo, H. Kruse, P. Pracht,  : VdW corrections, initial TS optimization,
                  C. Bannwarth, S. Ehlert          DFT functionals, gCP, sTDA/sTD-DF
   Ed Valeev, F. Pavosevic, A. Kumar             : LibInt (2-el integral package), F12 methods
   Garnet Chan, S. Sharma, J. Yang, R. Olivares  : DMRG
   Ulf Ekstrom                                   : XCFun DFT Library
   Mihaly Kallay                                 : mrcc  (arbitrary order and MRCC methods)
   Jiri Pittner, Ondrej Demel                    : Mk-CCSD
   Frank Weinhold                                : gennbo (NPA and NBO analysis)
   Christopher J. Cramer and Donald G. Truhlar   : smd solvation model
   Lars Goerigk                                  : TD-DFT with DH, B97 family of functionals
   V. Asgeirsson, H. Jonsson                     : NEB implementation
   FAccTs GmbH                                   : IRC, NEB, NEB-TS, DLPNO-Multilevel, CI-OPT
                                                   MM, QMMM, 2- and 3-layer-ONIOM, Crystal-QMMM,
                                                   LR-CPCM, SF, NACMEs, symmetry and pop. for TD-DFT,
                                                   nearIR, NL-DFT gradient (VV10), updates on ESD,
                                                   ML-optimized integration grids
   S Lehtola, MJT Oliveira, MAL Marques          : LibXC Library
   Liviu Ungur et al                             : ANISO software


 Your calculation uses the libint2 library for the computation of 2-el integrals
 For citations please refer to: http://libint.valeyev.net

 Your ORCA version has been built with support for libXC version: 5.1.0
 For citations please refer to: https://tddft.org/programs/libxc/

 This ORCA versions uses:
   CBLAS   interface :  Fast vector & matrix operations
   LAPACKE interface :  Fast linear algebra routines
   SCALAPACK package :  Parallel linear algebra routines
   Shared memory     :  Shared parallel matrices
   BLAS/LAPACK       :  OpenBLAS 0.3.15  USE64BITINT DYNAMIC_ARCH NO_AFFINITY Zen SINGLE_THREADED
        Core in use  :  Zen
   Copyright (c) 2011-2014, The OpenBLAS Project


================================================================================

----- Orbital basis set information -----
Your calculation utilizes the basis: def2-SVP
   F. Weigend and R. Ahlrichs, Phys. Chem. Chem. Phys. 7, 3297 (2005).

----- AuxC basis set information -----
Your calculation utilizes the auxiliary basis: def2-QZVPP/C
  H-La, Hf-Rn : A. Hellweg, C. Hattig, S. Hofener and W. Klopper, Theor. Chem. Acc. 117, 587 (2007).
        Ce-Lu : J. Chmela and M. E. Harding, Mol. Phys. (2018).

================================================================================
                                        WARNINGS
                       Please study these warnings very carefully!
================================================================================


WARNING: Post HF methods need fully converged wavefunctions
  ===> : Setting SCFConvForced true
         You can overwrite this default with %scf ConvForced false 


WARNING: MDCI localization with Augmented Hessian Foster-Boys
  ===> : Switching off randomization!

INFO   : the flag for use of the SHARK integral package has been found!

================================================================================
                                       INPUT FILE
================================================================================
NAME = Fe-CCNN_opt.inp
|  1> !DLPNO-CCSD(T) Extrapolate(2/3,def2) def2-QZVPP/C TIGHTSCF  hirshfeld
|  2> %maxcore 15000
|  3> %pal
|  4> nprocs 4 
|  5> end
|  6> %mdci
|  7> maxiter 500
|  8> end
|  9> * xyz 0 1
| 10>  C     -1.2440902336     -0.5690672275     0.
| 11> C     1.2712671786     4.7526506158     0.
| 12> C     -2.7081041252     1.422730887     0.
| 13> C     -2.7080864506     2.8345745651     0.
| 14> C     -1.244021593     4.8263416313     0.
| 15> C     0.0239825594     5.4133664414     0.
| 16> C     0.0239047995     -1.1561131118     0.
| 17> C     1.2712047599     -0.4954361123     0.
| 18> C     2.6325851864     1.4426507845     0.
| 19> C     2.6326046595     2.8144936068     0.
| 20> Fe     -0.017122111     2.1286168603     0.
| 21> H     0.0814998726     6.4994427719     0.
| 22> C     -1.4339448028     0.8276652894     0.
| 23> C     -1.4339124081     3.4296107488     0.
| 24> N     1.4035055798     0.8332800605     0.
| 25> N     1.4035411143     3.4239145569     0.
| 26> H     0.0814020548     -2.2421899605     0.
| 27> H     -2.0985157088     5.5099096573     0.
| 28> H     2.1775315681     5.3626861233     0.
| 29> H     -3.646248511     3.3988664228     0.
| 30> H     -3.64628002     0.8584618765     0.
| 31> H     -2.0986001329     -1.2526150477     0.
| 32> H     2.1774575943     -1.1054860799     0.
| 33> H     3.5492389719     3.4019975685     0.
| 34> H     3.5492001978     0.8551150714     0.
| 35> 
| 36> 
| 37> *
| 38> 
| 39>                          ****END OF INPUT****
================================================================================

                   *****************************************
                   * Extrapolated Single Point Calculation *
                   *****************************************

----- Orbital basis set information -----
Your calculation utilizes the basis: def2-SVP
   F. Weigend and R. Ahlrichs, Phys. Chem. Chem. Phys. 7, 3297 (2005).

----- AuxJ basis set information -----
Your calculation utilizes the auxiliary basis: def2/J
   F. Weigend, Phys. Chem. Chem. Phys. 8, 1057 (2006).

----- AuxC basis set information -----
Your calculation utilizes the auxiliary basis: def2-SVP/C
  H-La, Hf-Rn : A. Hellweg, C. Hattig, S. Hofener and W. Klopper, Theor. Chem. Acc. 117, 587 (2007).
        Ce-Lu : J. Chmela and M. E. Harding, Mol. Phys. (2018).

----- AuxJK basis set information -----
Your calculation utilizes the auxiliary basis: def2/JK
   H-Ba, Hf-Rn: F. Weigend, J. Comput. Chem. 29, 167 (2008).

All done

                     -----------------------------------------
                     Extrapolated Energy 1 Basis=    def2-SVP
                     -----------------------------------------

---------------------------------
CARTESIAN COORDINATES (ANGSTROEM)
---------------------------------
  C     -1.244090   -0.569067    0.000000
  C      1.271267    4.752651    0.000000
  C     -2.708104    1.422731    0.000000
  C     -2.708086    2.834575    0.000000
  C     -1.244022    4.826342    0.000000
  C      0.023983    5.413366    0.000000
  C      0.023905   -1.156113    0.000000
  C      1.271205   -0.495436    0.000000
  C      2.632585    1.442651    0.000000
  C      2.632605    2.814494    0.000000
  Fe    -0.017122    2.128617    0.000000
  H      0.081500    6.499443    0.000000
  C     -1.433945    0.827665    0.000000
  C     -1.433912    3.429611    0.000000
  N      1.403506    0.833280    0.000000
  N      1.403541    3.423915    0.000000
  H      0.081402   -2.242190    0.000000
  H     -2.098516    5.509910    0.000000
  H      2.177532    5.362686    0.000000
  H     -3.646249    3.398866    0.000000
  H     -3.646280    0.858462    0.000000
  H     -2.098600   -1.252615    0.000000
  H      2.177458   -1.105486    0.000000
  H      3.549239    3.401998    0.000000
  H      3.549200    0.855115    0.000000

----------------------------
CARTESIAN COORDINATES (A.U.)
----------------------------
  NO LB      ZA    FRAG     MASS         X           Y           Z
   0 C     6.0000    0    12.011   -2.350990   -1.075381    0.000000
   1 C     6.0000    0    12.011    2.402347    8.981208    0.000000
   2 C     6.0000    0    12.011   -5.117575    2.688572    0.000000
   3 C     6.0000    0    12.011   -5.117542    5.356570    0.000000
   4 C     6.0000    0    12.011   -2.350860    9.120464    0.000000
   5 C     6.0000    0    12.011    0.045320   10.229780    0.000000
   6 C     6.0000    0    12.011    0.045174   -2.184737    0.000000
   7 C     6.0000    0    12.011    2.402229   -0.936239    0.000000
   8 C     6.0000    0    12.011    4.974865    2.726215    0.000000
   9 C     6.0000    0    12.011    4.974902    5.318622    0.000000
  10 Fe   26.0000    0    55.850   -0.032356    4.022503    0.000000
  11 H     1.0000    0     1.008    0.154012   12.282167    0.000000
  12 C     6.0000    0    12.011   -2.709763    1.564061    0.000000
  13 C     6.0000    0    12.011   -2.709702    6.481025    0.000000
  14 N     7.0000    0    14.007    2.652241    1.574671    0.000000
  15 N     7.0000    0    14.007    2.652308    6.470261    0.000000
  16 H     1.0000    0     1.008    0.153828   -4.237125    0.000000
  17 H     1.0000    0     1.008   -3.965620   10.412220    0.000000
  18 H     1.0000    0     1.008    4.114938   10.134008    0.000000
  19 H     1.0000    0     1.008   -6.890411    6.422927    0.000000
  20 H     1.0000    0     1.008   -6.890471    1.622258    0.000000
  21 H     1.0000    0     1.008   -3.965780   -2.367099    0.000000
  22 H     1.0000    0     1.008    4.114799   -2.089066    0.000000
  23 H     1.0000    0     1.008    6.707090    6.428844    0.000000
  24 H     1.0000    0     1.008    6.707016    1.615933    0.000000

--------------------------------
INTERNAL COORDINATES (ANGSTROEM)
--------------------------------
 C      0   0   0     0.000000000000     0.00000000     0.00000000
 C      1   0   0     5.886230008656     0.00000000     0.00000000
 C      1   2   0     2.471962055478    61.61485359     0.00000000
 C      3   1   2     1.411843678211   143.68260672     0.00000000
 C      4   3   1     2.471967223338   143.68266322     0.00000000
 C      5   4   3     1.397294764241   151.15991666     0.00000000
 C      1   2   3     1.397295342524    89.54462630   180.00000085
 C      7   1   2     1.411471320602   127.24766546     0.00000000
 C      8   7   1     2.368446217503   152.99508523     0.00000000
 C      9   8   7     1.371842822438   144.91525873     0.00000000
 Fe    10   9   8     2.737056606958    75.48680767     0.00000000
 H      6   5   4     1.087598288427   117.87334712   180.00000085
 C      3   1   2     1.406266348991    28.64952397     0.00000000
 C      4   3   1     1.406267240070   115.03317768     0.00000000
 N      8   7   1     1.335286551571   123.59575301     0.00000000
 N      2   1   3     1.335303676430    30.98316751   180.00000000
 H      7   1   2     1.087597745331   117.87323176   180.00000000
 H      5   4   3     1.094269363597    92.34063937   180.00000085
 H      2   1   3     1.092455245805   149.24393400   180.00000000
 H      4   3   1     1.094793748722   121.02562527   180.00000000
 H      3   1   2     1.094793827985    95.29173128   180.00000085
 H      1   2   3     1.094269066776   153.95552861     0.00000000
 H      8   7   1     1.092453734868   118.14374538   180.00000000
 H     10   9   8     1.088751288257   122.65808707   180.00000121
 H      9   8   7     1.088752172577    92.42632594   180.00000000

---------------------------
INTERNAL COORDINATES (A.U.)
---------------------------
 C      0   0   0     0.000000000000     0.00000000     0.00000000
 C      1   0   0    11.123362677630     0.00000000     0.00000000
 C      1   2   0     4.671331298299    61.61485359     0.00000000
 C      3   1   2     2.667997895726   143.68260672     0.00000000
 C      4   3   1     4.671341064139   143.68266322     0.00000000
 C      5   4   3     2.640504432778   151.15991666     0.00000000
 C      1   2   3     2.640505525574    89.54462630   180.00000085
 C      7   1   2     2.667294241822   127.24766546     0.00000000
 C      8   7   1     4.475714714003   152.99508523     0.00000000
 C      9   8   7     2.592407233194   144.91525873     0.00000000
 Fe    10   9   8     5.172287400191    75.48680767     0.00000000
 H      6   5   4     2.055262908849   117.87334712   180.00000085
 C      3   1   2     2.657458270943    28.64952397     0.00000000
 C      4   3   1     2.657459954837   115.03317768     0.00000000
 N      8   7   1     2.523325892777   123.59575301     0.00000000
 N      2   1   3     2.523358254070    30.98316751   180.00000000
 H      7   1   2     2.055261882546   117.87323176   180.00000000
 H      5   4   3     2.067869413938    92.34063937   180.00000085
 H      2   1   3     2.064441228137   149.24393400   180.00000000
 H      4   3   1     2.068860358213   121.02562527   180.00000000
 H      3   1   2     2.068860507999    95.29173128   180.00000085
 H      1   2   3     2.067868853027   153.95552861     0.00000000
 H      8   7   1     2.064438372880   118.14374538   180.00000000
 H     10   9   8     2.057441762760   122.65808707   180.00000121
 H      9   8   7     2.057443433883    92.42632594   180.00000000

---------------------
BASIS SET INFORMATION
---------------------
There are 4 groups of distinct atoms

 Group   1 Type C   : 7s4p1d contracted to 3s2p1d pattern {511/31/1}
 Group   2 Type Fe  : 14s9p5d1f contracted to 5s3p2d1f pattern {63311/531/41/1}
 Group   3 Type H   : 4s1p contracted to 2s1p pattern {31/1}
 Group   4 Type N   : 7s4p1d contracted to 3s2p1d pattern {511/31/1}

Atom   0C    basis set group =>   1
Atom   1C    basis set group =>   1
Atom   2C    basis set group =>   1
Atom   3C    basis set group =>   1
Atom   4C    basis set group =>   1
Atom   5C    basis set group =>   1
Atom   6C    basis set group =>   1
Atom   7C    basis set group =>   1
Atom   8C    basis set group =>   1
Atom   9C    basis set group =>   1
Atom  10Fe   basis set group =>   2
Atom  11H    basis set group =>   3
Atom  12C    basis set group =>   1
Atom  13C    basis set group =>   1
Atom  14N    basis set group =>   4
Atom  15N    basis set group =>   4
Atom  16H    basis set group =>   3
Atom  17H    basis set group =>   3
Atom  18H    basis set group =>   3
Atom  19H    basis set group =>   3
Atom  20H    basis set group =>   3
Atom  21H    basis set group =>   3
Atom  22H    basis set group =>   3
Atom  23H    basis set group =>   3
Atom  24H    basis set group =>   3
---------------------------------
AUXILIARY/J BASIS SET INFORMATION
---------------------------------
There are 4 groups of distinct atoms

 Group   1 Type C   : 12s5p4d2f1g contracted to 6s4p3d1f1g pattern {711111/2111/211/2/1}
 Group   2 Type Fe  : 19s5p5d3f3g contracted to 8s5p5d2f3g pattern {121111111/11111/11111/21/111}
 Group   3 Type H   : 5s2p1d contracted to 3s1p1d pattern {311/2/1}
 Group   4 Type N   : 12s5p4d2f1g contracted to 6s4p3d1f1g pattern {711111/2111/211/2/1}

Atom   0C    basis set group =>   1
Atom   1C    basis set group =>   1
Atom   2C    basis set group =>   1
Atom   3C    basis set group =>   1
Atom   4C    basis set group =>   1
Atom   5C    basis set group =>   1
Atom   6C    basis set group =>   1
Atom   7C    basis set group =>   1
Atom   8C    basis set group =>   1
Atom   9C    basis set group =>   1
Atom  10Fe   basis set group =>   2
Atom  11H    basis set group =>   3
Atom  12C    basis set group =>   1
Atom  13C    basis set group =>   1
Atom  14N    basis set group =>   4
Atom  15N    basis set group =>   4
Atom  16H    basis set group =>   3
Atom  17H    basis set group =>   3
Atom  18H    basis set group =>   3
Atom  19H    basis set group =>   3
Atom  20H    basis set group =>   3
Atom  21H    basis set group =>   3
Atom  22H    basis set group =>   3
Atom  23H    basis set group =>   3
Atom  24H    basis set group =>   3
---------------------------------
AUXILIARY/C BASIS SET INFORMATION
---------------------------------
There are 4 groups of distinct atoms

 Group   1 Type C   : 8s6p5d3f contracted to 6s5p4d1f pattern {311111/21111/2111/3}
 Group   2 Type Fe  : 9s9p6d4f3g2h contracted to 9s9p6d4f3g2h pattern {111111111/111111111/111111/1111/111/11}
 Group   3 Type H   : 4s3p2d contracted to 3s2p1d pattern {211/21/2}
 Group   4 Type N   : 8s6p5d3f contracted to 6s5p4d1f pattern {311111/21111/2111/3}

Atom   0C    basis set group =>   1
Atom   1C    basis set group =>   1
Atom   2C    basis set group =>   1
Atom   3C    basis set group =>   1
Atom   4C    basis set group =>   1
Atom   5C    basis set group =>   1
Atom   6C    basis set group =>   1
Atom   7C    basis set group =>   1
Atom   8C    basis set group =>   1
Atom   9C    basis set group =>   1
Atom  10Fe   basis set group =>   2
Atom  11H    basis set group =>   3
Atom  12C    basis set group =>   1
Atom  13C    basis set group =>   1
Atom  14N    basis set group =>   4
Atom  15N    basis set group =>   4
Atom  16H    basis set group =>   3
Atom  17H    basis set group =>   3
Atom  18H    basis set group =>   3
Atom  19H    basis set group =>   3
Atom  20H    basis set group =>   3
Atom  21H    basis set group =>   3
Atom  22H    basis set group =>   3
Atom  23H    basis set group =>   3
Atom  24H    basis set group =>   3
----------------------------------
AUXILIARY/JK BASIS SET INFORMATION
----------------------------------
There are 4 groups of distinct atoms

 Group   1 Type C   : 14s10p6d2f1g contracted to 10s8p5d1f1g pattern {5111111111/31111111/21111/2/1}
 Group   2 Type Fe  : 19s14p12d10f7g3h1i contracted to 16s13p11d9f5g3h1i pattern {4111111111111111/2111111111111/21111111111/211111111/31111/111/1}
 Group   3 Type H   : 4s2p2d contracted to 2s2p2d pattern {31/11/11}
 Group   4 Type N   : 14s10p6d2f1g contracted to 10s8p4d2f1g pattern {5111111111/31111111/3111/11/1}

Atom   0C    basis set group =>   1
Atom   1C    basis set group =>   1
Atom   2C    basis set group =>   1
Atom   3C    basis set group =>   1
Atom   4C    basis set group =>   1
Atom   5C    basis set group =>   1
Atom   6C    basis set group =>   1
Atom   7C    basis set group =>   1
Atom   8C    basis set group =>   1
Atom   9C    basis set group =>   1
Atom  10Fe   basis set group =>   2
Atom  11H    basis set group =>   3
Atom  12C    basis set group =>   1
Atom  13C    basis set group =>   1
Atom  14N    basis set group =>   4
Atom  15N    basis set group =>   4
Atom  16H    basis set group =>   3
Atom  17H    basis set group =>   3
Atom  18H    basis set group =>   3
Atom  19H    basis set group =>   3
Atom  20H    basis set group =>   3
Atom  21H    basis set group =>   3
Atom  22H    basis set group =>   3
Atom  23H    basis set group =>   3
Atom  24H    basis set group =>   3


           ************************************************************
           *        Program running with 4 parallel MPI-processes     *
           *              working on a common directory               *
           ************************************************************
------------------------------------------------------------------------------
                           ORCA GTO INTEGRAL CALCULATION
------------------------------------------------------------------------------
------------------------------------------------------------------------------
                   ___                                                        
                  /   \      - P O W E R E D   B Y -                         
                 /     \                                                     
                 |  |  |   _    _      __       _____    __    __             
                 |  |  |  | |  | |    /  \     |  _  \  |  |  /  |          
                  \  \/   | |  | |   /    \    | | | |  |  | /  /          
                 / \  \   | |__| |  /  /\  \   | |_| |  |  |/  /          
                |  |  |   |  __  | /  /__\  \  |    /   |      \           
                |  |  |   | |  | | |   __   |  |    \   |  |\   \          
                \     /   | |  | | |  |  |  |  | |\  \  |  | \   \       
                 \___/    |_|  |_| |__|  |__|  |_| \__\ |__|  \__/        
                                                                              
                      - O R C A' S   B I G   F R I E N D -                    
                                      &                                       
                       - I N T E G R A L  F E E D E R -                       
                                                                              
 v1 FN, 2020, v2 2021                                                         
------------------------------------------------------------------------------


Reading SHARK input file Fe-CCNN_opt.SHARKINP.tmp ... ok
----------------------
SHARK INTEGRAL PACKAGE
----------------------

Number of atoms                             ...     25
Number of basis functions                   ...    277
Number of shells                            ...    125
Maximum angular momentum                    ...      3
Integral batch strategy                     ... SHARK/LIBINT Hybrid
RI-J (if used) integral strategy            ... SPLIT-RIJ (Revised 2003 algorithm where possible)
Printlevel                                  ...      1
Contraction scheme used                     ... SEGMENTED contraction
Coulomb Range Separation                    ... NOT USED
Exchange Range Separation                   ... NOT USED
Finite Nucleus Model                        ... NOT USED
Auxiliary Coulomb fitting basis             ... AVAILABLE
   # of basis functions in Aux-J            ...    885
   # of shells in Aux-J                     ...    283
   Maximum angular momentum in Aux-J        ...      4
Auxiliary J/K fitting basis                 ... AVAILABLE
   # of basis functions in Aux-JK           ...   1498
   # of shells in Aux-JK                    ...    468
   Maximum angular momentum in Aux-JK       ...      6
Auxiliary Correlation fitting basis         ... AVAILABLE
   # of basis functions in Aux-C            ...    955
   # of shells in Aux-C                     ...    317
   Maximum angular momentum in Aux-C        ...      5
Auxiliary 'external' fitting basis          ... NOT available
Integral threshold                          ...     2.500000e-11
Primitive cut-off                           ...     2.500000e-12
Primitive pair pre-selection threshold      ...     2.500000e-12

Calculating pre-screening integrals         ... done (  0.0 sec) Dimension = 125
Organizing shell pair data                  ... done (  0.0 sec)
Shell pair information
Total number of shell pairs                 ...      7875
Shell pairs after pre-screening             ...      6727
Total number of primitive shell pairs       ...     30880
Primitive shell pairs kept                  ...     17558
          la=0 lb=0:   1947 shell pairs
          la=1 lb=0:   2357 shell pairs
          la=1 lb=1:    751 shell pairs
          la=2 lb=0:    886 shell pairs
          la=2 lb=1:    556 shell pairs
          la=2 lb=2:    113 shell pairs
          la=3 lb=0:     61 shell pairs
          la=3 lb=1:     39 shell pairs
          la=3 lb=2:     16 shell pairs
          la=3 lb=3:      1 shell pairs

Calculating one electron integrals          ... done (  0.1 sec)
Calculating RI/J V-Matrix + Cholesky decomp.... done (  0.2 sec)
Calculating RI/JK V-Matrix + Cholesky decomp... done (  0.4 sec)
Calculating RI/C V-Matrix + Cholesky decomp.... done (  0.1 sec)
Calculating Nuclear repulsion               ... done (  0.0 sec) ENN=   1257.556611122922 Eh

SHARK setup successfully completed in   1.8 seconds

Maximum memory used throughout the entire GTOINT-calculation: 32.0 MB


           ************************************************************
           *        Program running with 4 parallel MPI-processes     *
           *              working on a common directory               *
           ************************************************************
-------------------------------------------------------------------------------
                                 ORCA SCF
-------------------------------------------------------------------------------

------------
SCF SETTINGS
------------
Hamiltonian:
 Ab initio Hamiltonian  Method          .... Hartree-Fock(GTOs)


General Settings:
 Integral files         IntName         .... Fe-CCNN_opt
 Hartree-Fock type      HFTyp           .... RHF
 Total Charge           Charge          ....    0
 Multiplicity           Mult            ....    1
 Number of Electrons    NEL             ....  122
 Basis Dimension        Dim             ....  277
 Nuclear Repulsion      ENuc            ....   1257.5566111229 Eh

Convergence Acceleration:
 DIIS                   CNVDIIS         .... on
   Start iteration      DIISMaxIt       ....    12
   Startup error        DIISStart       ....  0.200000
   # of expansion vecs  DIISMaxEq       ....     5
   Bias factor          DIISBfac        ....   1.050
   Max. coefficient     DIISMaxC        ....  10.000
 Trust-Rad. Augm. Hess. CNVTRAH         .... auto
   Auto Start mean grad. ratio tolernc. ....  1.125000
   Auto Start start iteration           ....    20
   Auto Start num. interpolation iter.  ....    10
   Max. Number of Micro iterations      ....    16
   Max. Number of Macro iterations      .... Maxiter - #DIIS iter
   Number of Davidson start vectors     ....     2
   Converg. threshold I  (grad. norm)   ....   1.000e-05
   Converg. threshold II (energy diff.) ....   1.000e-08
   Grad. Scal. Fac. for Micro threshold ....   0.100
   Minimum threshold for Micro iter.    ....   0.010
   NR start threshold (gradient norm)   ....   0.001
   Initial trust radius                 ....   0.400
   Minimum AH scaling param. (alpha)    ....   1.000
   Maximum AH scaling param. (alpha)    .... 1000.000
   Orbital update algorithm             .... Taylor
   White noise on init. David. guess    .... on
   Maximum white noise                  ....   0.010
   Quad. conv. algorithm                .... NR
 SOSCF                  CNVSOSCF        .... off
 Level Shifting         CNVShift        .... on
   Level shift para.    LevelShift      ....    0.2500
   Turn off err/grad.   ShiftErr        ....    0.0010
 Zerner damping         CNVZerner       .... off
 Static damping         CNVDamp         .... on
   Fraction old density DampFac         ....    0.7000
   Max. Damping (<1)    DampMax         ....    0.9800
   Min. Damping (>=0)   DampMin         ....    0.0000
   Turn off err/grad.   DampErr         ....    0.1000
 Fernandez-Rico         CNVRico         .... off

SCF Procedure:
 Maximum # iterations   MaxIter         ....   125
 SCF integral mode      SCFMode         .... Direct
   Integral package                     .... SHARK and LIBINT hybrid scheme
 Reset frequency        DirectResetFreq ....    20
 Integral Threshold     Thresh          ....  2.500e-11 Eh
 Primitive CutOff       TCut            ....  2.500e-12 Eh

Convergence Tolerance:
 Convergence Check Mode ConvCheckMode   .... Total+1el-Energy
 Convergence forced     ConvForced      .... 1
 Energy Change          TolE            ....  1.000e-08 Eh
 1-El. energy change                    ....  1.000e-05 Eh
 DIIS Error             TolErr          ....  5.000e-07


Diagonalization of the overlap matrix:
Smallest eigenvalue                        ... 5.805e-04
Time for diagonalization                   ...    0.006 sec
Threshold for overlap eigenvalues          ... 1.000e-08
Number of eigenvalues below threshold      ... 0
Time for construction of square roots      ...    0.006 sec
Total time needed                          ...    0.013 sec

Time for model grid setup =    0.628 sec

------------------------------
INITIAL GUESS: MODEL POTENTIAL
------------------------------
Loading Hartree-Fock densities                     ... done
Calculating cut-offs                               ... done
Initializing the effective Hamiltonian             ... done
Setting up the integral package (SHARK)            ... done
Starting the Coulomb interaction                   ... done (   0.1 sec)
Reading the grid                                   ... done
Mapping shells                                     ... done
Starting the XC term evaluation                    ... done (   0.1 sec)
Transforming the Hamiltonian                       ... done (   0.0 sec)
Diagonalizing the Hamiltonian                      ... done (   0.0 sec)
Back transforming the eigenvectors                 ... done (   0.0 sec)
Now organizing SCF variables                       ... done
                      ------------------
                      INITIAL GUESS DONE (   0.8 sec)
                      ------------------
Hirshfeld charges requested but no grid available - making one
-------------------
DFT GRID GENERATION
-------------------

General Integration Accuracy     IntAcc      ... 4.388
Radial Grid Type                 RadialGrid  ... OptM3 with GC (2021)
Angular Grid (max. ang.)         AngularGrid ... 4 (Lebedev-302)
Angular grid pruning method      GridPruning ... 4 (adaptive)
Weight generation scheme         WeightScheme... Becke
Basis function cutoff            BFCut       ... 1.0000e-11
Integration weight cutoff        WCut        ... 1.0000e-14
Angular grids for H and He will be reduced by one unit
Partially contracted basis set               ... off
Rotationally invariant grid construction     ... off

Total number of grid points                  ...   126587
Total number of batches                      ...     1989
Average number of points per batch           ...       63
Average number of grid points per atom       ...     5063
Time for grid setup =    0.924 sec

--------------
SCF ITERATIONS
--------------
ITER       Energy         Delta-E        Max-DP      RMS-DP      [F,P]     Damp
               ***  Starting incremental Fock matrix formation  ***
  0  -1830.0092114810   0.000000000000 0.08380975  0.00253707  0.1775157 0.7000
  1  -1830.2231234220  -0.213911940945 0.07337088  0.00191468  0.1175050 0.7000
                               ***Turning on DIIS***
  2  -1830.3559842393  -0.132860817311 0.05590339  0.00128317  0.1075304 0.7000
  3  -1832.4089911417  -2.053006902432 0.15176673  0.00323934  0.0943642 0.0000
  4  -1830.7308766126   1.678114529089 0.03894586  0.00077174  0.0508209 0.0000
  5  -1830.8904033428  -0.159526730178 0.03756121  0.00056826  0.0286936 0.0000
  6  -1830.8340349842   0.056368358646 0.01633403  0.00028246  0.0194332 0.0000
  7  -1830.6928350889   0.141199895319 0.01179420  0.00016839  0.0050007 0.0000
  8  -1830.7186913465  -0.025856257635 0.00513413  0.00009998  0.0018013 0.0000
  9  -1830.7024422055   0.016249140994 0.00254162  0.00007470  0.0013273 0.0000
 10  -1830.7003044009   0.002137804608 0.00431175  0.00012899  0.0009741 0.0000
 11  -1830.7089072554  -0.008602854522 0.00250211  0.00008320  0.0009148 0.0000
 12  -1830.6982084605   0.010698794950 0.00296807  0.00009561  0.0005791 0.0000
 13  -1830.7083059591  -0.010097498634 0.00077065  0.00002608  0.0004145 0.0000
 14  -1830.7122867398  -0.003980780706 0.00026491  0.00000790  0.0003861 0.0000
 15  -1830.7069095744   0.005377165408 0.00007303  0.00000233  0.0001106 0.0000
 16  -1830.7087964486  -0.001886874250 0.00002215  0.00000058  0.0000147 0.0000
 17  -1830.7085468448   0.000249603846 0.00001070  0.00000032  0.0000066 0.0000
 18  -1830.7086078896  -0.000061044814 0.00000531  0.00000013  0.0000022 0.0000
 19  -1830.7086196373  -0.000011747700 0.00000160  0.00000004  0.0000018 0.0000
               *** Restarting incremental Fock matrix formation ***
                                   *** Resetting DIIS ***
                            ***DIIS convergence achieved***

               *****************************************************
               *                     SUCCESS                       *
               *           SCF CONVERGED AFTER  20 CYCLES          *
               *****************************************************


----------------
TOTAL SCF ENERGY
----------------

Total Energy       :        -1830.70860778 Eh          -49816.11382 eV

Components:
Nuclear Repulsion  :         1257.55661112 Eh           34219.85509 eV
Electronic Energy  :        -3088.26521890 Eh          -84035.96891 eV
One Electron Energy:        -5020.50025533 Eh         -136614.75731 eV
Two Electron Energy:         1932.23503643 Eh           52578.78840 eV

Virial components:
Potential Energy   :        -3658.23408502 Eh          -99545.61025 eV
Kinetic Energy     :         1827.52547724 Eh           49729.49643 eV
Virial Ratio       :            2.00174177


---------------
SCF CONVERGENCE
---------------

  Last Energy change         ...    1.1857e-05  Tolerance :   1.0000e-08
  Last MAX-Density change    ...    1.2540e-06  Tolerance :   1.0000e-07
  Last RMS-Density change    ...    2.8877e-08  Tolerance :   5.0000e-09
  Last DIIS Error            ...    9.4357e-07  Tolerance :   5.0000e-07

             **** THE GBW FILE WAS UPDATED (Fe-CCNN_opt.gbw) ****
             **** DENSITY Fe-CCNN_opt.scfp WAS UPDATED ****
             **** ENERGY FILE WAS UPDATED (Fe-CCNN_opt.en.tmp) ****
             **** THE GBW FILE WAS UPDATED (Fe-CCNN_opt.gbw) ****
             **** DENSITY Fe-CCNN_opt.scfp WAS UPDATED ****
----------------
ORBITAL ENERGIES
----------------

  NO   OCC          E(Eh)            E(eV) 
   0   2.0000    -261.266931     -7109.4346 
   1   2.0000     -31.841564      -866.4530 
   2   2.0000     -27.348133      -744.1805 
   3   2.0000     -27.325113      -743.5541 
   4   2.0000     -27.314860      -743.2751 
   5   2.0000     -15.581171      -423.9852 
   6   2.0000     -15.581142      -423.9844 
   7   2.0000     -11.299117      -307.4646 
   8   2.0000     -11.299112      -307.4645 
   9   2.0000     -11.278867      -306.9136 
  10   2.0000     -11.277568      -306.8782 
  11   2.0000     -11.244074      -305.9668 
  12   2.0000     -11.244070      -305.9667 
  13   2.0000     -11.235112      -305.7230 
  14   2.0000     -11.234122      -305.6960 
  15   2.0000     -11.229998      -305.5838 
  16   2.0000     -11.229996      -305.5837 
  17   2.0000     -11.168638      -303.9141 
  18   2.0000     -11.168635      -303.9140 
  19   2.0000      -4.051686      -110.2520 
  20   2.0000      -2.645674       -71.9925 
  21   2.0000      -2.624822       -71.4250 
  22   2.0000      -2.622232       -71.3546 
  23   2.0000      -1.261492       -34.3269 
  24   2.0000      -1.224050       -33.3081 
  25   2.0000      -1.090946       -29.6862 
  26   2.0000      -1.058813       -28.8118 
  27   2.0000      -1.057549       -28.7774 
  28   2.0000      -0.987711       -26.8770 
  29   2.0000      -0.957368       -26.0513 
  30   2.0000      -0.892614       -24.2893 
  31   2.0000      -0.860244       -23.4084 
  32   2.0000      -0.799463       -21.7545 
  33   2.0000      -0.788748       -21.4629 
  34   2.0000      -0.749488       -20.3946 
  35   2.0000      -0.723787       -19.6952 
  36   2.0000      -0.713120       -19.4050 
  37   2.0000      -0.682833       -18.5808 
  38   2.0000      -0.674504       -18.3542 
  39   2.0000      -0.637692       -17.3525 
  40   2.0000      -0.618050       -16.8180 
  41   2.0000      -0.602028       -16.3820 
  42   2.0000      -0.583815       -15.8864 
  43   2.0000      -0.573018       -15.5926 
  44   2.0000      -0.566461       -15.4142 
  45   2.0000      -0.550537       -14.9809 
  46   2.0000      -0.541467       -14.7341 
  47   2.0000      -0.515088       -14.0163 
  48   2.0000      -0.508309       -13.8318 
  49   2.0000      -0.500624       -13.6227 
  50   2.0000      -0.476179       -12.9575 
  51   2.0000      -0.473041       -12.8721 
  52   2.0000      -0.468425       -12.7465 
  53   2.0000      -0.397953       -10.8289 
  54   2.0000      -0.393854       -10.7173 
  55   2.0000      -0.390596       -10.6287 
  56   2.0000      -0.372221       -10.1286 
  57   2.0000      -0.352025        -9.5791 
  58   2.0000      -0.351211        -9.5569 
  59   2.0000      -0.264543        -7.1986 
  60   2.0000      -0.242565        -6.6005 
  61   0.0000       0.005529         0.1504 
  62   0.0000       0.053626         1.4592 
  63   0.0000       0.124107         3.3771 
  64   0.0000       0.181580         4.9410 
  65   0.0000       0.182949         4.9783 
  66   0.0000       0.187947         5.1143 
  67   0.0000       0.192727         5.2444 
  68   0.0000       0.207973         5.6592 
  69   0.0000       0.218894         5.9564 
  70   0.0000       0.221848         6.0368 
  71   0.0000       0.237102         6.4519 
  72   0.0000       0.242554         6.6002 
  73   0.0000       0.243287         6.6202 
  74   0.0000       0.251138         6.8338 
  75   0.0000       0.265830         7.2336 
  76   0.0000       0.282699         7.6926 
  77   0.0000       0.284324         7.7368 
  78   0.0000       0.306929         8.3520 
  79   0.0000       0.345407         9.3990 
  80   0.0000       0.360264         9.8033 
  81   0.0000       0.381566        10.3829 
  82   0.0000       0.385120        10.4796 
  83   0.0000       0.392827        10.6894 
  84   0.0000       0.435612        11.8536 
  85   0.0000       0.457123        12.4390 
  86   0.0000       0.462158        12.5759 
  87   0.0000       0.477829        13.0024 
  88   0.0000       0.489344        13.3157 
  89   0.0000       0.493123        13.4186 
  90   0.0000       0.511500        13.9186 
  91   0.0000       0.521656        14.1950 
  92   0.0000       0.533900        14.5282 
  93   0.0000       0.548810        14.9339 
  94   0.0000       0.550304        14.9745 
  95   0.0000       0.558892        15.2082 
  96   0.0000       0.589200        16.0330 
  97   0.0000       0.604726        16.4554 
  98   0.0000       0.608272        16.5519 
  99   0.0000       0.625744        17.0274 
 100   0.0000       0.641308        17.4509 
 101   0.0000       0.648114        17.6361 
 102   0.0000       0.648967        17.6593 
 103   0.0000       0.659133        17.9359 
 104   0.0000       0.662326        18.0228 
 105   0.0000       0.674658        18.3584 
 106   0.0000       0.676595        18.4111 
 107   0.0000       0.686813        18.6891 
 108   0.0000       0.697567        18.9818 
 109   0.0000       0.702400        19.1133 
 110   0.0000       0.715414        19.4674 
 111   0.0000       0.738331        20.0910 
 112   0.0000       0.742264        20.1980 
 113   0.0000       0.756132        20.5754 
 114   0.0000       0.763098        20.7650 
 115   0.0000       0.794105        21.6087 
 116   0.0000       0.804776        21.8991 
 117   0.0000       0.817362        22.2415 
 118   0.0000       0.839294        22.8383 
 119   0.0000       0.847852        23.0712 
 120   0.0000       0.858494        23.3608 
 121   0.0000       0.871730        23.7210 
 122   0.0000       0.878963        23.9178 
 123   0.0000       0.885513        24.0960 
 124   0.0000       0.893640        24.3172 
 125   0.0000       0.901505        24.5312 
 126   0.0000       0.914019        24.8717 
 127   0.0000       0.914735        24.8912 
 128   0.0000       0.916533        24.9401 
 129   0.0000       0.918943        25.0057 
 130   0.0000       0.935146        25.4466 
 131   0.0000       0.936883        25.4939 
 132   0.0000       0.958234        26.0749 
 133   0.0000       0.992459        27.0062 
 134   0.0000       0.996555        27.1176 
 135   0.0000       1.028460        27.9858 
 136   0.0000       1.036277        28.1985 
 137   0.0000       1.036985        28.2178 
 138   0.0000       1.044275        28.4162 
 139   0.0000       1.052498        28.6399 
 140   0.0000       1.068269        29.0691 
 141   0.0000       1.079577        29.3768 
 142   0.0000       1.098114        29.8812 
 143   0.0000       1.125318        30.6215 
 144   0.0000       1.152325        31.3564 
 145   0.0000       1.156918        31.4813 
 146   0.0000       1.172396        31.9025 
 147   0.0000       1.176940        32.0262 
 148   0.0000       1.197561        32.5873 
 149   0.0000       1.204119        32.7657 
 150   0.0000       1.253162        34.1003 
 151   0.0000       1.308716        35.6120 
 152   0.0000       1.330720        36.2107 
 153   0.0000       1.367136        37.2017 
 154   0.0000       1.388990        37.7963 
 155   0.0000       1.389158        37.8009 
 156   0.0000       1.415711        38.5235 
 157   0.0000       1.430228        38.9185 
 158   0.0000       1.437011        39.1031 
 159   0.0000       1.441271        39.2190 
 160   0.0000       1.466298        39.9000 
 161   0.0000       1.471038        40.0290 
 162   0.0000       1.476602        40.1804 
 163   0.0000       1.483919        40.3795 
 164   0.0000       1.495442        40.6931 
 165   0.0000       1.515888        41.2494 
 166   0.0000       1.517943        41.3053 
 167   0.0000       1.524390        41.4808 
 168   0.0000       1.554643        42.3040 
 169   0.0000       1.568259        42.6745 
 170   0.0000       1.585888        43.1542 
 171   0.0000       1.596964        43.4556 
 172   0.0000       1.610645        43.8279 
 173   0.0000       1.614764        43.9400 
 174   0.0000       1.657046        45.0905 
 175   0.0000       1.729806        47.0704 
 176   0.0000       1.735730        47.2316 
 177   0.0000       1.771287        48.1992 
 178   0.0000       1.809713        49.2448 
 179   0.0000       1.844453        50.1901 
 180   0.0000       1.868840        50.8537 
 181   0.0000       1.876523        51.0628 
 182   0.0000       1.883367        51.2490 
 183   0.0000       1.921469        52.2858 
 184   0.0000       1.957104        53.2555 
 185   0.0000       1.972050        53.6622 
 186   0.0000       1.995787        54.3081 
 187   0.0000       1.998668        54.3865 
 188   0.0000       2.027040        55.1586 
 189   0.0000       2.032838        55.3163 
 190   0.0000       2.034591        55.3640 
 191   0.0000       2.040025        55.5119 
 192   0.0000       2.059473        56.0411 
 193   0.0000       2.084598        56.7248 
 194   0.0000       2.086018        56.7634 
 195   0.0000       2.094968        57.0070 
 196   0.0000       2.098743        57.1097 
 197   0.0000       2.111077        57.4453 
 198   0.0000       2.132681        58.0332 
 199   0.0000       2.154947        58.6391 
 200   0.0000       2.166897        58.9643 
 201   0.0000       2.189009        59.5660 
 202   0.0000       2.196302        59.7644 
 203   0.0000       2.213251        60.2256 
 204   0.0000       2.219125        60.3855 
 205   0.0000       2.229523        60.6684 
 206   0.0000       2.237013        60.8722 
 207   0.0000       2.237027        60.8726 
 208   0.0000       2.240787        60.9749 
 209   0.0000       2.244841        61.0852 
 210   0.0000       2.255618        61.3785 
 211   0.0000       2.274842        61.9016 
 212   0.0000       2.285819        62.2003 
 213   0.0000       2.293349        62.4052 
 214   0.0000       2.302285        62.6484 
 215   0.0000       2.358991        64.1914 
 216   0.0000       2.377943        64.7071 
 217   0.0000       2.391906        65.0871 
 218   0.0000       2.411116        65.6098 
 219   0.0000       2.430382        66.1340 
 220   0.0000       2.441277        66.4305 
 221   0.0000       2.455291        66.8119 
 222   0.0000       2.482454        67.5510 
 223   0.0000       2.484175        67.5978 
 224   0.0000       2.526080        68.7381 
 225   0.0000       2.559404        69.6449 
 226   0.0000       2.590522        70.4917 
 227   0.0000       2.593077        70.5612 
 228   0.0000       2.607965        70.9663 
 229   0.0000       2.657689        72.3194 
 230   0.0000       2.675563        72.8058 
 231   0.0000       2.723154        74.1008 
 232   0.0000       2.726701        74.1973 
 233   0.0000       2.734646        74.4135 
 234   0.0000       2.738395        74.5155 
 235   0.0000       2.767891        75.3182 
 236   0.0000       2.790450        75.9320 
 237   0.0000       2.793594        76.0176 
 238   0.0000       2.831894        77.0598 
 239   0.0000       2.854879        77.6852 
 240   0.0000       2.916052        79.3498 
 241   0.0000       2.921768        79.5053 
 242   0.0000       2.970720        80.8374 
 243   0.0000       2.975460        80.9664 
 244   0.0000       3.001839        81.6842 
 245   0.0000       3.039151        82.6995 
 246   0.0000       3.048403        82.9513 
 247   0.0000       3.070900        83.5634 
 248   0.0000       3.082510        83.8794 
 249   0.0000       3.088919        84.0538 
 250   0.0000       3.091834        84.1331 
 251   0.0000       3.103824        84.4593 
 252   0.0000       3.137819        85.3844 
 253   0.0000       3.143637        85.5427 
 254   0.0000       3.163851        86.0928 
 255   0.0000       3.177369        86.4606 
 256   0.0000       3.196138        86.9713 
 257   0.0000       3.221844        87.6708 
 258   0.0000       3.247109        88.3583 
 259   0.0000       3.271711        89.0278 
 260   0.0000       3.396515        92.4239 
 261   0.0000       3.399560        92.5067 
 262   0.0000       3.431945        93.3880 
 263   0.0000       3.498280        95.1930 
 264   0.0000       3.621235        98.5388 
 265   0.0000       3.646389        99.2233 
 266   0.0000       3.784733       102.9878 
 267   0.0000       3.867335       105.2355 
 268   0.0000       3.901414       106.1629 
 269   0.0000       3.928753       106.9068 
 270   0.0000       4.583780       124.7310 
 271   0.0000       4.603597       125.2703 
 272   0.0000       4.606390       125.3462 
 273   0.0000       4.635301       126.1329 
 274   0.0000       4.640597       126.2771 
 275   0.0000       4.733315       128.8000 
 276   0.0000       4.779974       130.0697 

                    ********************************
                    * MULLIKEN POPULATION ANALYSIS *
                    ********************************

-----------------------
MULLIKEN ATOMIC CHARGES
-----------------------
   0 C :    0.060755
   1 C :    0.233211
   2 C :    0.001306
   3 C :    0.001312
   4 C :    0.060756
   5 C :   -0.154038
   6 C :   -0.154032
   7 C :    0.233200
   8 C :    0.142232
   9 C :    0.142247
  10 Fe:    1.043926
  11 H :    0.037064
  12 C :   -0.375566
  13 C :   -0.375567
  14 N :   -0.588598
  15 N :   -0.588621
  16 H :    0.037062
  17 H :    0.019998
  18 H :    0.039836
  19 H :    0.018270
  20 H :    0.018270
  21 H :    0.019998
  22 H :    0.039834
  23 H :    0.043571
  24 H :    0.043572
Sum of atomic charges:    0.0000000

--------------------------------
MULLIKEN REDUCED ORBITAL CHARGES
--------------------------------
  0 C s       :     3.137634  s :     3.137634
      pz      :     0.860958  p :     2.754090
      px      :     0.911468
      py      :     0.981663
      dz2     :     0.003541  d :     0.047521
      dxz     :     0.005999
      dyz     :     0.004941
      dx2y2   :     0.013291
      dxy     :     0.019749
  1 C s       :     3.075549  s :     3.075549
      pz      :     0.848276  p :     2.626148
      px      :     0.952678
      py      :     0.825194
      dz2     :     0.004609  d :     0.065091
      dxz     :     0.005237
      dyz     :     0.012784
      dx2y2   :     0.019614
      dxy     :     0.022846
  2 C s       :     3.178017  s :     3.178017
      pz      :     0.903439  p :     2.775330
      px      :     0.948874
      py      :     0.923017
      dz2     :     0.003523  d :     0.045348
      dxz     :     0.003568
      dyz     :     0.005317
      dx2y2   :     0.017993
      dxy     :     0.014947
  3 C s       :     3.178016  s :     3.178016
      pz      :     0.903432  p :     2.775325
      px      :     0.948876
      py      :     0.923016
      dz2     :     0.003523  d :     0.045348
      dxz     :     0.003568
      dyz     :     0.005317
      dx2y2   :     0.017992
      dxy     :     0.014947
  4 C s       :     3.137632  s :     3.137632
      pz      :     0.860955  p :     2.754090
      px      :     0.911471
      py      :     0.981665
      dz2     :     0.003541  d :     0.047521
      dxz     :     0.006000
      dyz     :     0.004941
      dx2y2   :     0.013291
      dxy     :     0.019749
  5 C s       :     3.122235  s :     3.122235
      pz      :     1.106922  p :     2.992009
      px      :     0.934075
      py      :     0.951012
      dz2     :     0.003472  d :     0.039795
      dxz     :     0.005689
      dyz     :     0.002196
      dx2y2   :     0.015338
      dxy     :     0.013099
  6 C s       :     3.122230  s :     3.122230
      pz      :     1.106917  p :     2.992006
      px      :     0.934074
      py      :     0.951016
      dz2     :     0.003472  d :     0.039795
      dxz     :     0.005689
      dyz     :     0.002196
      dx2y2   :     0.015339
      dxy     :     0.013099
  7 C s       :     3.075551  s :     3.075551
      pz      :     0.848279  p :     2.626156
      px      :     0.952676
      py      :     0.825202
      dz2     :     0.004609  d :     0.065093
      dxz     :     0.005237
      dyz     :     0.012784
      dx2y2   :     0.019615
      dxy     :     0.022847
  8 C s       :     3.063156  s :     3.063156
      pz      :     1.007690  p :     2.734276
      px      :     0.802976
      py      :     0.923611
      dz2     :     0.004611  d :     0.060336
      dxz     :     0.006106
      dyz     :     0.010485
      dx2y2   :     0.019720
      dxy     :     0.019414
  9 C s       :     3.063153  s :     3.063153
      pz      :     1.007682  p :     2.734266
      px      :     0.802978
      py      :     0.923606
      dz2     :     0.004611  d :     0.060335
      dxz     :     0.006105
      dyz     :     0.010485
      dx2y2   :     0.019720
      dxy     :     0.019414
 10 Fes       :     6.378933  s :     6.378933
      pz      :     4.023075  p :    12.235653
      px      :     4.088626
      py      :     4.123952
      dz2     :     1.901680  d :     6.339004
      dxz     :     1.948802
      dyz     :     0.045119
      dx2y2   :     1.961712
      dxy     :     0.481690
      f0      :     0.000077  f :     0.002484
      f+1     :     0.000254
      f-1     :     0.000441
      f+2     :     0.000033
      f-2     :     0.000115
      f+3     :     0.000524
      f-3     :     0.001040
 11 H s       :     0.937339  s :     0.937339
      pz      :     0.004588  p :     0.025597
      px      :     0.002369
      py      :     0.018640
 12 C s       :     3.237344  s :     3.237344
      pz      :     0.824925  p :     3.098910
      px      :     1.232587
      py      :     1.041398
      dz2     :     0.004312  d :     0.039312
      dxz     :     0.004563
      dyz     :     0.004909
      dx2y2   :     0.017594
      dxy     :     0.007933
 13 C s       :     3.237347  s :     3.237347
      pz      :     0.824929  p :     3.098909
      px      :     1.232571
      py      :     1.041410
      dz2     :     0.004312  d :     0.039311
      dxz     :     0.004563
      dyz     :     0.004909
      dx2y2   :     0.017594
      dxy     :     0.007933
 14 N s       :     3.581824  s :     3.581824
      pz      :     1.339387  p :     3.976830
      px      :     1.392526
      py      :     1.244917
      dz2     :     0.003001  d :     0.029944
      dxz     :     0.003235
      dyz     :     0.006133
      dx2y2   :     0.011919
      dxy     :     0.005656
 15 N s       :     3.581833  s :     3.581833
      pz      :     1.339400  p :     3.976845
      px      :     1.392540
      py      :     1.244905
      dz2     :     0.003001  d :     0.029943
      dxz     :     0.003235
      dyz     :     0.006133
      dx2y2   :     0.011918
      dxy     :     0.005656
 16 H s       :     0.937341  s :     0.937341
      pz      :     0.004588  p :     0.025597
      px      :     0.002369
      py      :     0.018640
 17 H s       :     0.955357  s :     0.955357
      pz      :     0.003249  p :     0.024645
      px      :     0.012583
      py      :     0.008813
 18 H s       :     0.935936  s :     0.935936
      pz      :     0.003201  p :     0.024228
      px      :     0.013793
      py      :     0.007235
 19 H s       :     0.957218  s :     0.957218
      pz      :     0.003286  p :     0.024512
      px      :     0.014368
      py      :     0.006858
 20 H s       :     0.957218  s :     0.957218
      pz      :     0.003286  p :     0.024512
      px      :     0.014368
      py      :     0.006857
 21 H s       :     0.955357  s :     0.955357
      pz      :     0.003249  p :     0.024645
      px      :     0.012583
      py      :     0.008813
 22 H s       :     0.935938  s :     0.935938
      pz      :     0.003201  p :     0.024228
      px      :     0.013792
      py      :     0.007235
 23 H s       :     0.931009  s :     0.931009
      pz      :     0.004310  p :     0.025420
      px      :     0.014341
      py      :     0.006769
 24 H s       :     0.931008  s :     0.931008
      pz      :     0.004310  p :     0.025420
      px      :     0.014341
      py      :     0.006769


                     *******************************
                     * LOEWDIN POPULATION ANALYSIS *
                     *******************************

----------------------
LOEWDIN ATOMIC CHARGES
----------------------
   0 C :    0.035288
   1 C :    0.107778
   2 C :    0.016442
   3 C :    0.016446
   4 C :    0.035290
   5 C :   -0.110291
   6 C :   -0.110288
   7 C :    0.107772
   8 C :    0.012828
   9 C :    0.012835
  10 Fe:    0.315069
  11 H :    0.024179
  12 C :   -0.198567
  13 C :   -0.198569
  14 N :   -0.109977
  15 N :   -0.109992
  16 H :    0.024178
  17 H :    0.015926
  18 H :    0.019148
  19 H :    0.010788
  20 H :    0.010788
  21 H :    0.015926
  22 H :    0.019148
  23 H :    0.018927
  24 H :    0.018928

-------------------------------
LOEWDIN REDUCED ORBITAL CHARGES
-------------------------------
  0 C s       :     2.871555  s :     2.871555
      pz      :     0.850388  p :     2.986615
      px      :     1.046307
      py      :     1.089919
      dz2     :     0.006815  d :     0.106543
      dxz     :     0.010520
      dyz     :     0.009590
      dx2y2   :     0.031576
      dxy     :     0.048043
  1 C s       :     2.854877  s :     2.854877
      pz      :     0.854652  p :     2.895267
      px      :     1.060607
      py      :     0.980008
      dz2     :     0.009162  d :     0.142078
      dxz     :     0.009517
      dyz     :     0.024157
      dx2y2   :     0.044810
      dxy     :     0.054433
  2 C s       :     2.878712  s :     2.878712
      pz      :     0.877403  p :     3.002794
      px      :     1.068398
      py      :     1.056993
      dz2     :     0.006808  d :     0.102053
      dxz     :     0.005822
      dyz     :     0.010074
      dx2y2   :     0.043406
      dxy     :     0.035943
  3 C s       :     2.878713  s :     2.878713
      pz      :     0.877397  p :     3.002789
      px      :     1.068399
      py      :     1.056992
      dz2     :     0.006808  d :     0.102053
      dxz     :     0.005822
      dyz     :     0.010074
      dx2y2   :     0.043405
      dxy     :     0.035944
  4 C s       :     2.871556  s :     2.871556
      pz      :     0.850384  p :     2.986612
      px      :     1.046309
      py      :     1.089919
      dz2     :     0.006815  d :     0.106542
      dxz     :     0.010520
      dyz     :     0.009589
      dx2y2   :     0.031575
      dxy     :     0.048043
  5 C s       :     2.858172  s :     2.858172
      pz      :     1.065943  p :     3.159678
      px      :     1.056450
      py      :     1.037285
      dz2     :     0.007087  d :     0.092441
      dxz     :     0.011639
      dyz     :     0.003396
      dx2y2   :     0.038935
      dxy     :     0.031385
  6 C s       :     2.858171  s :     2.858171
      pz      :     1.065939  p :     3.159675
      px      :     1.056451
      py      :     1.037286
      dz2     :     0.007087  d :     0.092442
      dxz     :     0.011639
      dyz     :     0.003396
      dx2y2   :     0.038936
      dxy     :     0.031384
  7 C s       :     2.854872  s :     2.854872
      pz      :     0.854654  p :     2.895274
      px      :     1.060606
      py      :     0.980014
      dz2     :     0.009162  d :     0.142083
      dxz     :     0.009517
      dyz     :     0.024157
      dx2y2   :     0.044811
      dxy     :     0.054435
  8 C s       :     2.850610  s :     2.850610
      pz      :     0.996016  p :     3.002135
      px      :     0.961797
      py      :     1.044322
      dz2     :     0.009271  d :     0.134427
      dxz     :     0.012031
      dyz     :     0.019027
      dx2y2   :     0.048657
      dxy     :     0.045442
  9 C s       :     2.850612  s :     2.850612
      pz      :     0.996009  p :     3.002128
      px      :     0.961799
      py      :     1.044319
      dz2     :     0.009270  d :     0.134425
      dxz     :     0.012030
      dyz     :     0.019027
      dx2y2   :     0.048656
      dxy     :     0.045441
 10 Fes       :     6.417618  s :     6.417618
      pz      :     4.043795  p :    12.691460
      px      :     4.307849
      py      :     4.339817
      dz2     :     1.946246  d :     6.572149
      dxz     :     1.956679
      dyz     :     0.060500
      dx2y2   :     1.966261
      dxy     :     0.642463
      f0      :     0.000100  f :     0.003704
      f+1     :     0.000432
      f-1     :     0.000585
      f+2     :     0.000035
      f-2     :     0.000164
      f+3     :     0.000876
      f-3     :     0.001513
 11 H s       :     0.906160  s :     0.906160
      pz      :     0.017076  p :     0.069661
      px      :     0.009760
      py      :     0.042826
 12 C s       :     2.947790  s :     2.947790
      pz      :     0.825575  p :     3.162892
      px      :     1.220961
      py      :     1.116356
      dz2     :     0.009608  d :     0.087885
      dxz     :     0.007521
      dyz     :     0.009185
      dx2y2   :     0.039031
      dxy     :     0.022540
 13 C s       :     2.947791  s :     2.947791
      pz      :     0.825579  p :     3.162894
      px      :     1.220953
      py      :     1.116362
      dz2     :     0.009608  d :     0.087884
      dxz     :     0.007521
      dyz     :     0.009185
      dx2y2   :     0.039031
      dxy     :     0.022539
 14 N s       :     3.142344  s :     3.142344
      pz      :     1.284999  p :     3.907085
      px      :     1.361706
      py      :     1.260380
      dz2     :     0.005748  d :     0.060549
      dxz     :     0.005635
      dyz     :     0.010112
      dx2y2   :     0.024300
      dxy     :     0.014755
 15 N s       :     3.142351  s :     3.142351
      pz      :     1.285013  p :     3.907095
      px      :     1.361716
      py      :     1.260367
      dz2     :     0.005748  d :     0.060546
      dxz     :     0.005634
      dyz     :     0.010111
      dx2y2   :     0.024298
      dxy     :     0.014754
 16 H s       :     0.906161  s :     0.906161
      pz      :     0.017076  p :     0.069661
      px      :     0.009760
      py      :     0.042826
 17 H s       :     0.917229  s :     0.917229
      pz      :     0.011263  p :     0.066845
      px      :     0.030668
      py      :     0.024914
 18 H s       :     0.914479  s :     0.914479
      pz      :     0.011140  p :     0.066373
      px      :     0.034517
      py      :     0.020717
 19 H s       :     0.921783  s :     0.921783
      pz      :     0.011804  p :     0.067429
      px      :     0.035904
      py      :     0.019720
 20 H s       :     0.921783  s :     0.921783
      pz      :     0.011805  p :     0.067429
      px      :     0.035905
      py      :     0.019720
 21 H s       :     0.917228  s :     0.917228
      pz      :     0.011263  p :     0.066845
      px      :     0.030669
      py      :     0.024914
 22 H s       :     0.914479  s :     0.914479
      pz      :     0.011140  p :     0.066373
      px      :     0.034516
      py      :     0.020717
 23 H s       :     0.911764  s :     0.911764
      pz      :     0.014882  p :     0.069308
      px      :     0.035972
      py      :     0.018454
 24 H s       :     0.911763  s :     0.911763
      pz      :     0.014882  p :     0.069308
      px      :     0.035971
      py      :     0.018455


                      *****************************
                      * MAYER POPULATION ANALYSIS *
                      *****************************

  NA   - Mulliken gross atomic population
  ZA   - Total nuclear charge
  QA   - Mulliken gross atomic charge
  VA   - Mayer's total valence
  BVA  - Mayer's bonded valence
  FA   - Mayer's free valence

  ATOM       NA         ZA         QA         VA         BVA        FA
  0 C      5.9392     6.0000     0.0608     3.8982     3.8982     0.0000
  1 C      5.7668     6.0000     0.2332     3.8446     3.8446    -0.0000
  2 C      5.9987     6.0000     0.0013     3.8717     3.8717    -0.0000
  3 C      5.9987     6.0000     0.0013     3.8717     3.8717     0.0000
  4 C      5.9392     6.0000     0.0608     3.8982     3.8982     0.0000
  5 C      6.1540     6.0000    -0.1540     3.8866     3.8866     0.0000
  6 C      6.1540     6.0000    -0.1540     3.8865     3.8865    -0.0000
  7 C      5.7668     6.0000     0.2332     3.8446     3.8446    -0.0000
  8 C      5.8578     6.0000     0.1422     3.8527     3.8527     0.0000
  9 C      5.8578     6.0000     0.1422     3.8527     3.8527     0.0000
 10 Fe    24.9561    26.0000     1.0439     1.8787     1.8787     0.0000
 11 H      0.9629     1.0000     0.0371     0.9855     0.9855     0.0000
 12 C      6.3756     6.0000    -0.3756     3.3990     3.3990     0.0000
 13 C      6.3756     6.0000    -0.3756     3.3990     3.3990    -0.0000
 14 N      7.5886     7.0000    -0.5886     2.9306     2.9306     0.0000
 15 N      7.5886     7.0000    -0.5886     2.9306     2.9306     0.0000
 16 H      0.9629     1.0000     0.0371     0.9855     0.9855    -0.0000
 17 H      0.9800     1.0000     0.0200     0.9853     0.9853     0.0000
 18 H      0.9602     1.0000     0.0398     0.9878     0.9878     0.0000
 19 H      0.9817     1.0000     0.0183     0.9872     0.9872     0.0000
 20 H      0.9817     1.0000     0.0183     0.9872     0.9872     0.0000
 21 H      0.9800     1.0000     0.0200     0.9853     0.9853     0.0000
 22 H      0.9602     1.0000     0.0398     0.9878     0.9878    -0.0000
 23 H      0.9564     1.0000     0.0436     0.9931     0.9931    -0.0000
 24 H      0.9564     1.0000     0.0436     0.9931     0.9931     0.0000

  Mayer bond orders larger than 0.100000
B(  0-C ,  6-C ) :   1.5258 B(  0-C , 12-C ) :   1.2424 B(  0-C , 21-H ) :   0.9823 
B(  1-C ,  5-C ) :   1.2830 B(  1-C , 15-N ) :   1.4429 B(  1-C , 18-H ) :   0.9850 
B(  2-C ,  3-C ) :   1.2417 B(  2-C , 12-C ) :   1.5106 B(  2-C , 20-H ) :   0.9929 
B(  3-C , 13-C ) :   1.5106 B(  3-C , 19-H ) :   0.9929 B(  4-C ,  5-C ) :   1.5258 
B(  4-C , 13-C ) :   1.2424 B(  4-C , 17-H ) :   0.9823 B(  5-C , 11-H ) :   0.9836 
B(  6-C ,  7-C ) :   1.2830 B(  6-C , 16-H ) :   0.9836 B(  7-C , 14-N ) :   1.4429 
B(  7-C , 22-H ) :   0.9850 B(  8-C ,  9-C ) :   1.6682 B(  8-C , 14-N ) :   1.0877 
B(  8-C , 24-H ) :   0.9858 B(  9-C , 15-N ) :   1.0877 B(  9-C , 23-H ) :   0.9858 
B( 10-Fe, 12-C ) :   0.5646 B( 10-Fe, 13-C ) :   0.5646 B( 10-Fe, 14-N ) :   0.3093 
B( 10-Fe, 15-N ) :   0.3094 


------------------
HIRSHFELD ANALYSIS
------------------

Total integrated alpha density =     61.000018510
Total integrated beta density  =     61.000018510

  ATOM     CHARGE      SPIN    
   0 C    0.015129    0.000000
   1 C    0.100843    0.000000
   2 C    0.011137    0.000000
   3 C    0.011140    0.000000
   4 C    0.015130    0.000000
   5 C   -0.058243    0.000000
   6 C   -0.058241    0.000000
   7 C    0.100842    0.000000
   8 C    0.034870    0.000000
   9 C    0.034872    0.000000
  10 Fe   0.134307    0.000000
  11 H    0.017113    0.000000
  12 C   -0.148695    0.000000
  13 C   -0.148697    0.000000
  14 N   -0.152716    0.000000
  15 N   -0.152722    0.000000
  16 H    0.017112    0.000000
  17 H    0.021041    0.000000
  18 H    0.037824    0.000000
  19 H    0.019564    0.000000
  20 H    0.019564    0.000000
  21 H    0.021042    0.000000
  22 H    0.037825    0.000000
  23 H    0.034960    0.000000
  24 H    0.034961    0.000000

  TOTAL  -0.000037    0.000000

-------
TIMINGS
-------

Total SCF time: 0 days 0 hours 0 min 56 sec 

Total time                  ....      56.006 sec
Sum of individual times     ....      55.652 sec  ( 99.4%)

Fock matrix formation       ....      53.213 sec  ( 95.0%)
Diagonalization             ....       0.226 sec  (  0.4%)
Density matrix formation    ....       0.008 sec  (  0.0%)
Population analysis         ....       0.318 sec  (  0.6%)
Initial guess               ....       0.181 sec  (  0.3%)
Orbital Transformation      ....       0.000 sec  (  0.0%)
Orbital Orthonormalization  ....       0.000 sec  (  0.0%)
DIIS solution               ....       0.154 sec  (  0.3%)

Maximum memory used throughout the entire SCF-calculation: 244.8 MB


           ************************************************************
           *        Program running with 4 parallel MPI-processes     *
           *              working on a common directory               *
           ************************************************************


--------------------------------------------------------------------------------
                             ORCA-MATRIX DRIVEN CI
--------------------------------------------------------------------------------


Wavefunction type
-----------------
Correlation treatment                      ...      CCSD     
Single excitations                         ... ON
Orbital optimization                       ... OFF
Calculation of Z vector                    ... OFF
Calculation of Brueckner orbitals          ... OFF
Perturbative triple excitations            ... ON
Calculation of F12 correction              ... OFF
Frozen core treatment                      ... chemical core (38 el)
Reference Wavefunction                     ... RHF
  Internal Orbitals:    19 ...   60 ( 42 MO's/ 84 electrons)
  Virtual  Orbitals:    61 ...  276 (216 MO's              )
Number of AO's                             ...    277
Number of electrons                        ...    122
Number of correlated electrons             ...     84

Algorithmic settings
--------------------
Integral transformation                    ... All integrals via the RI transformation
K(C) Formation                             ... RI-DLPNO
   PNO-Integral Storage                    ... ON DISK
   PNO occupation number cut-off           ... 3.330e-07
   Singles PNO occupation number cut-off   ... 9.990e-09
   PNO Mulliken prescreening cut-off       ... 1.000e-03
   Domain cut-off (Mulliken population)    ... 1.000e-03
   PNO Normalization                       ...    1
Maximum number of iterations               ...       500
Convergence tolerance (max. residuum)      ... 1.000e-05
Level shift for amplitude update           ... 2.000e-01
Maximum number of DIIS vectors             ...         7
DIIS turned on at iteration                ...         0
Damping before turning on DIIS             ...     0.500
Damping after turning on DIIS              ...     0.000
Pair specific amplitude update             ... OFF
Natural orbital iterations                 ... OFF
Perturbative natural orbital generation    ... OFF
Printlevel                                 ... 2

Singles Fock matrix elements calculated using PNOs.

Memory handling:
----------------
Maximum memory for working arrays          ...  15000 MB
Data storage in matrix containers          ... UNCOMPRESSED
Data type for integral storage             ... DOUBLE
In-Core Storage of quantities:
   Amplitudes+Sigma Vector      ... NO
   J+K operators                ... NO
   DIIS vectors                 ... NO
   3-external integrals         ... NO
   4-external integrals         ... NO

Localization treatment:
-----------------------
Localization option                        ...    6
Localization threshhold                    ... -1.0e+00
Using relative localization threshhold     ... 1.0e-08
Neglect threshold for strong pairs         ... 1.000e-04 Eh
Prescreening threshold for very weak pairs ... 1.000e-06 Eh

Initializing the integral package          ... done
Localizing the valence orbitals
------------------------------------------------------------------------------
                           ORCA ORBITAL LOCALIZATION
------------------------------------------------------------------------------

Input orbitals are from                  ... Fe-CCNN_opt.gbw
Output orbitals are to                   ... Fe-CCNN_opt.loc
Max. number of iterations                ... 128
Localizations seeded randomly            ... off
Convergence tolerance                    ... 1.000e-06
Using relative localization threshhold   ... 1.000e-08
Treshold for strong local MOs            ... 9.500e-01
Treshold for bond MOs                    ... 8.500e-01
Operator                                 ... 0
Orbital range for localization           ... 19 to 60
Localization criterion                   ... FOSTER-BOYS (AUGMENTED HESSIAN)
Doing the dipole integrals     ... o.k.
Initial value of the localization sum :  1548.898114
ITERATION   0 : L= 1658.0292663945 DL=  1.09e+02 (AVERGE_DL)=    0.3560186877 
ITERATION   1 : L= 1674.2361074195 DL=  1.62e+01 (AVERGE_DL)=    0.1371979462 
ITERATION   2 : L= 1675.1805117841 DL=  9.44e-01 (AVERGE_DL)=    0.0331190154 
ITERATION   3 : L= 1675.1910925209 DL=  1.06e-02 (AVERGE_DL)=    0.0035055517 
ITERATION   4 : L= 1675.1913923646 DL=  3.00e-04 (AVERGE_DL)=    0.0005901275 
ITERATION   5 : L= 1675.1914232577 DL=  3.09e-05 (AVERGE_DL)=    0.0001894215 
ITERATION   6 : L= 1675.1914362006 DL=  1.29e-05 (AVERGE_DL)=    0.0001226066 
ITERATION   7 : L= 1675.1914473065 DL=  1.11e-05 (AVERGE_DL)=    0.0001135736 
ITERATION   8 : L= 1675.1914580415 DL=  1.07e-05 (AVERGE_DL)=    0.0001116600 
ITERATION   9 : L= 1675.1914685605 DL=  1.05e-05 (AVERGE_DL)=    0.0001105318 
ITERATION  10 : L= 1675.1914788662 DL=  1.03e-05 (AVERGE_DL)=    0.0001094047 
ITERATION  11 : L= 1675.1914889724 DL=  1.01e-05 (AVERGE_DL)=    0.0001083412 
ITERATION  12 : L= 1675.1914988779 DL=  9.91e-06 (AVERGE_DL)=    0.0001072594 
ITERATION  13 : L= 1675.1915085897 DL=  9.71e-06 (AVERGE_DL)=    0.0001062058 
ITERATION  14 : L= 1675.1915181071 DL=  9.52e-06 (AVERGE_DL)=    0.0001051375 
ITERATION  15 : L= 1675.1915274367 DL=  9.33e-06 (AVERGE_DL)=    0.0001040954 
ITERATION  16 : L= 1675.1915365795 DL=  9.14e-06 (AVERGE_DL)=    0.0001030476 
DETECTED SLOW CONVERGENCE - QUITTING

------------------------------------------------------
AUGMENTED HESSIAN OPTIMIZATION OF FOSTER-BOYS ORBITALS
------------------------------------------------------

Spin operator:           0
Orbital window:          19 to 60
Number of iterations:    128
Gradient tolerance:      1.000e-06
Number of pairs:         861
Davidson threshold:      2000
Diagonalization method:  LAPACK
Iter:    0   L: 1675.1915365795   Grad. norm: 6.428307e-03
Iter:    1   L: 1675.1919390971   Grad. norm: 1.590617e-02
Iter:    2   L: 1675.1919524496   Grad. norm: 5.373002e-04
   *** Likely close to a maximum now. ***
       Augmented Hessian eigenvalues:  1.29e-08 -1.52e-02 -1.44e+00 -1.54e+00 ... 
Iter:    3   L: 1675.1919524560   Grad. norm: 1.747833e-07
LOCALIZATION HAS CONVERGED.

Eigenvalues of the Hessian:
  0 -1.515e-02
  1 -1.444e+00
  2 -1.537e+00
  3 -1.923e+00
  4 -1.933e+00
  5 -2.161e+00
  6 -2.165e+00
  7 -2.473e+00
  8 -2.493e+00
  9 -2.496e+00
    ...


--------------------------------------------------------------------------------
                    LOCALIZED MOLECULAR ORBITAL COMPOSITIONS
--------------------------------------------------------------------------------

The Mulliken populations for each LMO on each atom are computed
The LMO`s will be ordered according to atom index and type
  (A) Strongly localized MO`s have populations of >=0.950 on one atom
  (B) Two center bond orbitals have populations of >=0.850 on two atoms
  (C) Other MO`s are considered to be `delocalized`

FOUND  -   9 strongly local MO`s
       -  33 two center bond MO`s
       -   0 significantly delocalized MO`s

Rather strongly localized orbitals:
MO  27:  15N  -   0.951501
MO  26:  14N  -   0.951501
MO  25:  10Fe -   1.004680
MO  24:  10Fe -   0.987712
MO  23:  10Fe -   0.998594
MO  22:  10Fe -   1.004680
MO  21:  10Fe -   0.995581
MO  20:  10Fe -   0.998594
MO  19:  10Fe -   0.987712
Bond-like localized orbitals:
MO  60:  24H  -   0.485618  and   8C  -   0.531871
MO  59:  23H  -   0.485619  and   9C  -   0.531870
MO  58:  22H  -   0.489523  and   7C  -   0.532233
MO  57:  21H  -   0.501623  and   0C  -   0.520653
MO  56:  20H  -   0.501394  and   2C  -   0.525380
MO  55:  19H  -   0.501394  and   3C  -   0.525380
MO  54:  18H  -   0.489522  and   1C  -   0.532232
MO  53:  17H  -   0.501623  and   4C  -   0.520652
MO  52:  16H  -   0.493249  and   6C  -   0.521044
MO  51:  15N  -   0.615400  and   9C  -   0.399588
MO  50:  15N  -   0.627955  and   1C  -   0.350938
MO  49:  15N  -   0.627955  and   1C  -   0.350938
MO  48:  14N  -   0.615400  and   8C  -   0.399589
MO  47:  14N  -   0.627949  and   7C  -   0.350946
MO  46:  14N  -   0.627949  and   7C  -   0.350946
MO  45:  13C  -   0.864974  and  10Fe -   0.158987
MO  44:  13C  -   0.475091  and   4C  -   0.545887
MO  43:  13C  -   0.440521  and   3C  -   0.473982
MO  42:  13C  -   0.440521  and   3C  -   0.473982
MO  41:  12C  -   0.864974  and  10Fe -   0.158988
MO  40:  12C  -   0.440519  and   2C  -   0.473985
MO  39:  12C  -   0.440519  and   2C  -   0.473985
MO  38:  12C  -   0.475092  and   0C  -   0.545886
MO  37:  11H  -   0.493248  and   5C  -   0.521045
MO  36:   9C  -   0.493233  and   8C  -   0.493236
[...]

Pair selection                          .... not used
Type of local MP2 treatment                 .... semi-local MP2
Strategy for PNO selection                  .... occupation number selection
Pair density normalization                  .... MP2 norm
Spin component scaling                      .... not used

   .... Finished loop over pairs

 PNO Occupation Number Statistics: 
  | Av. % of trace(Dij) retained        ...  96.829433850835
  | sigma^2 in % of trace(Dij) retained ...   1.11e+01
  | Av. % of trace(Di) retained         ...  99.998682710467
  | sigma^2 in % of trace(Di) retained  ...   3.03e-07
 Distributions of % trace(Dij) recovered:
  |       >= 99.9  ...   133 ( 15.7 % of all pairs)
  |   [80.0, 90.0) ...    22 (  2.6 % of all pairs)
  |   [90.0, 99.0) ...   521 ( 61.5 % of all pairs)
  |   [99.0, 99.9) ...   171 ( 20.2 % of all pairs)
 Distributions of % trace(Di) recovered :
  |       >= 99.9  ...    42 (100.0 % of all I-pairs )

Making pair pair interaction lists          ... done

                       ===========================
                        597 OF  847 PAIRS ARE KEPT
                       ===========================

Total time spent in the initial guess                 ...    40.813 sec
SL-MP2 correlation energy (all non-screened pairs)    ...      -2.645708803441 Eh

Initial PNO correlation energy                        ...      -2.623429646789 Eh
sum of pair energies estimated for screened out pairs ...      -0.000253172874 Eh
sum of MP2 pair energies for pairs that were not kept ...      -0.011986484057 Eh
sum of PNO error estimates for the kept pairs         ...      -0.010292672595 Eh
                                                          --------------------
sum of all corrections                                         -0.022532329525
Initial total correlation energy                               -2.645961976315
Thresholds for map construction and integral transformation for fine MP2 and CCSD(T) calculation:
   TCutMKN   ...     1.0e-03
   TCutDO    ...     1.0e-02
   TCutPairs ...     1.0e-04
   TCutCMO   ...     1.0e-03
   TCutCPAO  ...     1.0e-03

Time for aux screen maps:            0.005
Time for maps after fine MP2:            0.022
-----------------------------
LOCAL RI TRANSFORMATION (IJV)
-----------------------------

Orbital window:      19 to 60
Basis functions:    539 (209 shells)
Aux. functions:    1396 (416 shells)
Use SHARK:           on

Processing maps (0.0 sec)
Average map sizes:
   Aux shells -> MOs(i)           41.5
   Aux shells -> MOs(j)           42.0
   MOs        -> AO shells       201.4

Calculating integrals (1.9 sec, 18.650 MB)
Sorting integrals (0.1 sec, 18.634 MB)
Total time for the integral transformation: 2.0 sec
--------------------------------
LOCAL RI TRANSFORMATION (VABPAO)
--------------------------------

Number of PAOs:     539
Basis functions:    539 (209 shells)
Aux. functions:    1396 (416 shells)
Use SHARK:           on

Processing maps (0.0 sec)
Average map sizes:
   Aux shells -> PAOs            539.0
   PAOs       -> AO shells       208.8

Calculating integrals (6.7 sec, 3094.249 MB)
Finished


-------------------------------------
Pair Pair Term precalculation with     
RI-(ij|mn) and (im|jn) transformation  
ON THE FLY                             
-------------------------------------

   IBatch   1 (of   5)              ... done (  103.470 sec)
   IBatch   2 (of   5)              ... done (  115.840 sec)
   IBatch   3 (of   5)              ... done (  123.683 sec)
   IBatch   4 (of   5)              ... done (  148.645 sec)
   IBatch   5 (of   5)              ... done (  145.349 sec)
Total EXT                           ...         636.988 sec

---------------------
RI-PNO TRANSFORMATION
---------------------

Total Number of PNOs                   ... 18521
Average number of PNOs per pair        ...    31
Maximal number of PNOs per pair        ...    82
   #pairs with  1 -  5 PNOs   :    0
   #pairs with  6 - 10 PNOs   :   16
   #pairs with 11 - 15 PNOs   :   78
   #pairs with 16 - 20 PNOs   :   87
   #pairs with 21 - 25 PNOs   :   80
   #pairs with 26 - 30 PNOs   :   67
   #pairs with 31 - 35 PNOs   :   70
   #pairs with 36 - 40 PNOs   :   41
   #pairs with 41 - 45 PNOs   :   47
   #pairs with 46 - 50 PNOs   :   34
   #pairs with 51 - 55 PNOs   :   26
   #pairs with 56 - 60 PNOs   :   24
   #pairs with 61 - 65 PNOs   :   18
   #pairs with 66 - 70 PNOs   :    3
   #pairs with 71 - 75 PNOs   :    4
   #pairs with 81 - 85 PNOs   :    2

Generation of (ij|ab)[P] integrals            ... on
Generation of (ia|bc)[P],(ja|bc)[P] integrals ... on
Storage of 3 and 4 external integrals         ... on
Generation of ALL (ka|bc)[P] integrals        ... on
Keep RI integrals in memory                   ... off

Ibatch:  1 (of  1)
Starting 2-4 index PNO integral generation ... done

Timings:
Total PNO integral transformation time     ...        247.039 sec
Size of the 3-external file                ...       250 MB
Size of the 4-external file                ...      1606 MB
Size of the IKJL file                      ...         1 MB
Size of the all 3-external file            ...      5250 MB
Size of the 1-external file                ...        17 MB

Making pair/pair overlap matrices          ... done (   42.549 sec)
Size of the pair overlap file              ... 1831 MB
Redoing the guess amplitudes               ... done (    0.038 sec)

-------------------------
FINAL STARTUP INFORMATION
-------------------------

E(0)                                       ...  -1831.488720454
E(SL-MP2)                                  ...     -2.645708803
E(SL-MP2) including corrections            ...     -2.645961976
Initial E(tot)                             ...  -1834.134682430
<T|T>                                      ...      0.753734032
Number of pairs included                   ... 597
Total number of pairs                      ... 903

------------------------------------------------
                  RHF COUPLED CLUSTER ITERATIONS
------------------------------------------------

Number of PNO amplitudes to be optimized   ...       711325
Number of non-PNO amplitudes               ...    136404948
Untruncated number of regular amplitudes   ...    206321052

Iter       E(tot)           E(Corr)          Delta-E          Residual     Time
  0  -1834.134827258     -2.623574474      0.022134329      0.023187695  329.09
                           *** Turning on DIIS ***
  1  -1834.189730765     -2.678477981     -0.054903507      0.016535694  234.52
  2  -1834.264824587     -2.753571803     -0.075093822      0.012325695  239.36
  3  -1834.291077845     -2.779825062     -0.026253258      0.010043319  166.94
  4  -1834.301271413     -2.790018629     -0.010193567      0.008102311  101.57
  5  -1834.309789382     -2.798536598     -0.008517969      0.004508326   75.04
  6  -1834.313092082     -2.801839299     -0.003302700      0.002947699   74.94
  7  -1834.313989485     -2.802736701     -0.000897403      0.001836135   75.56
  8  -1834.314383780     -2.803130996     -0.000394295      0.001591005   75.02
  9  -1834.314438246     -2.803185462     -0.000054466      0.001182823   76.11
 10  -1834.314528170     -2.803275387     -0.000089925      0.000929312   74.03
 11  -1834.314499083     -2.803246299      0.000029088      0.000685067   75.31
 12  -1834.314557345     -2.803304562     -0.000058263      0.000367734   74.77
 13  -1834.314539438     -2.803286654      0.000017908      0.000273663   74.59
 14  -1834.314532399     -2.803279615      0.000007039      0.000154572   74.99
 15  -1834.314506765     -2.803253981      0.000025634      0.000118315   73.73
 16  -1834.314481049     -2.803228266      0.000025716      0.000089342   75.14
 17  -1834.314454523     -2.803201740      0.000026526      0.000067907   75.68
 18  -1834.314440055     -2.803187271      0.000014469      0.000050913   73.84
 19  -1834.314431324     -2.803178541      0.000008730      0.000042759   74.76
 20  -1834.314428292     -2.803175509      0.000003032      0.000034485   74.51
 21  -1834.314427040     -2.803174256      0.000001252      0.000025858   74.22
 22  -1834.314427391     -2.803174607     -0.000000351      0.000019285   75.33
 23  -1834.314427141     -2.803174358      0.000000250      0.000013728   74.49
 24  -1834.314427120     -2.803174337      0.000000021      0.000009560   75.11
               --- The Coupled-Cluster iterations have converged ---

----------------------
COUPLED CLUSTER ENERGY
----------------------

E(0)                                       ...  -1831.488720454
E(CORR)(strong-pairs)                      ...     -2.803174337
E(CORR)(weak-pairs)                        ...     -0.022532330
E(CORR)(corrected)                         ...     -2.825706666
E(TOT)                                     ...  -1834.314427120
Singles Norm <S|S>**1/2                    ...      0.206335332  
T1 diagnostic                              ...      0.022513030  

------------------
LARGEST AMPLITUDES
------------------
  43-> 68  -1-> -1       0.070194
  39-> 68  -1-> -1       0.070193
  25-> 61  -1-> -1       0.045168
  21-> 61  -1-> -1       0.045168
  22-> 61  -1-> -1       0.043611
  24-> 61  -1-> -1       0.043611
  56-> 65  56-> 65       0.040949
  55-> 65  55-> 65       0.040949
  52-> 65  52-> 65       0.039677
  35-> 65  35-> 65       0.039677
  23-> 62  -1-> -1       0.038832
  43-> 64  43-> 64       0.037645
  39-> 64  39-> 64       0.037645
  48-> 61  48-> 61       0.037573
  49-> 61  49-> 61       0.037573
  45-> 61  45-> 61       0.037573


-------------------------------------------
DLPNO BASED TRIPLES CORRECTION
-------------------------------------------

Singles multiplier          ...  1.000000
TCutTNO                     ... 1.000e-09
TCutMP2Pairs                ... 1.000e-05
TCutDOStrong                ... 2.000e-02
TCutMKNStrong               ... 1.000e-02
TCutDOWeak                  ... 4.000e-02
TCutMKNWeak                 ... 1.000e-01

Fragment selection                          .... not used
Fock matrix occ-virt block is zero --> Setting DT_in_Triples to false.
Number of Triples that are to be computed   ...      8208

 . . . . . . . . .
10% done  
20% done  
30% done               (    599.524 sec)
 . . . . . . . . .
40% done  
50% done  
60% done  
70% done  
80% done               (    771.421 sec)
 . . . . . . . . .
90% done               (    158.562 sec)
Triples timings:
Total time for T0               ...  1658.937 sec
Total time for Iterative (T)    ...     0.000 sec
Total time of overall (T)       ...  1658.938 sec

Triples List generation         ...     0.000 sec
TNO generation                  ...   129.361 sec
Pair density generation         ...     0.007 sec
Look up tables                  ...     0.000 sec
Generating 3-index integrals    ...  1110.739 sec
  Make 4-ind.int. from 3-ind.int...    79.882 sec
  Projecting amplitudes (D + S) ...   257.393 sec
  Downprojecting integrals      ...     0.022 sec
  Energy contr. (sum over a,b,c)...    15.593 sec
Fitting ET(->0)                 ...     0.000 sec

Everything after 3-index        ...   418.769 sec

Timing details:
 TNO integrals                  ...  1182.618 sec
   Reading 3-index integrals    ...    12.947 sec
   Sorting integrals            ...   114.203 sec
       Sorting integrals 1      ...     0.007 sec
       Sorting integrals 2      ...    97.159 sec
       Sorting integrals 3      ...     2.507 sec
       Sorting integrals 4      ...     0.301 sec
       Sorting integrals 5      ...     1.157 sec
       Sorting integrals 6      ...    13.072 sec
   Calculating local VM**-1/2   ...     4.953 sec
   Orthogonal. integrals        ...     8.641 sec
   Multipl. 3-index integrals   ...  1041.873 sec
   All concerning IRIab (w/TNO) ...    49.571 sec

 Calculate W0/W1                ...    65.791 sec
 W 3-ext contribution           ...    38.483 sec
 W 3-int contribution           ...    15.702 sec
 Sorting W                      ...    10.307 sec

 V exchange contribution        ...     6.557 sec

 Timings for Triples without generation
     of 3-index integrals       ...   418.725 sec
       0 weak pairs             ...   316.679 sec
       1 weak pair              ...   102.046 sec
       2 weak pairs             ...     0.000 sec
       3 weak pairs             ...     0.000 sec
  Extra time for extrapolation  ...     0.000 sec

Number of Triples   (0, 1, 2, 3 weak pairs; overall):   5008    3200       0       0  (  8208)
Number of Atoms     (0, 1, 2, 3 weak pairs; overall):   17.2    13.0     0.0     0.0  (    25)
Number of PAOs      (0, 1, 2, 3 weak pairs; overall):  444.4   349.3     0.0     0.0  (   539)
Number of AuxFcns   (0, 1, 2, 3 weak pairs; overall):  546.1   426.6     0.0     0.0  (  1396)
Number of TNOs      (0, 1, 2, 3 weak pairs         ):   86.4    63.6     0.0     0.0
Aver. Number of NTNO, Atoms, PAOs, AuxFcns / Triples:   8208    77.5    15.6   407.3   499.5

Triples Correction (T)                     ...     -0.144622058
Final correlation energy                   ...     -2.970328725
E(CCSD)                                    ...  -1834.314427120
E(CCSD(T))                                 ...  -1834.459049179



--------------------------------------------------------------------------------
                                    TIMINGS
--------------------------------------------------------------------------------


Total execution time                   ...     5385.160 sec

Localization of occupied MO's          ...        0.820 sec (  0.0%)
Fock Matrix Formation                  ...       44.422 sec (  0.8%)
Global overlap, Fock, MKN matrices     ...        0.422 sec (  0.0%)
Differential overlap integrals         ...        1.442 sec (  0.0%)
Organizing maps                        ...        0.067 sec (  0.0%)
RI 3-index integral generations        ...       16.596 sec (  0.3%)
RI-PNO integral transformation         ...     1029.825 sec ( 19.1%)
Initial Guess                          ...       62.409 sec (  1.2%)
DIIS Solver                            ...        3.417 sec (  0.1%)
State Vector Update                    ...        0.055 sec (  0.0%)
Sigma-vector construction              ...     2565.177 sec ( 47.6%)
  <0|H|D>                              ...        0.003 sec (  0.0% of sigma)
  <D|H|D>(0-ext)                       ...      490.233 sec ( 19.1% of sigma)
  <D|H|D>(2-ext Fock)                  ...        0.512 sec (  0.0% of sigma)
  <D|H|D>(2-ext)                       ...      310.353 sec ( 12.1% of sigma)
  <D|H|D>(4-ext)                       ...       37.144 sec (  1.4% of sigma)
  <D|H|D>(4-ext-corr)                  ...      208.955 sec (  8.1% of sigma)
  CCSD doubles correction              ...       20.282 sec (  0.8% of sigma)
  <S|H|S>                              ...       12.051 sec (  0.5% of sigma)
  <S|H|D>(1-ext)                       ...       14.720 sec (  0.6% of sigma)
  <D|H|S>(1-ext)                       ...        0.532 sec (  0.0% of sigma)
  <S|H|D>(3-ext)                       ...        4.672 sec (  0.2% of sigma)
  CCSD singles correction              ...        0.002 sec (  0.0% of sigma)
  Fock-dressing                        ...      819.794 sec ( 32.0% of sigma)
  Singles amplitudes                   ...        7.469 sec (  0.3% of sigma)
  (ik|jl)-dressing                     ...      529.980 sec ( 20.7% of sigma)
  (ij|ab),(ia|jb)-dressing             ...       92.948 sec (  3.6% of sigma)
  Pair energies                        ...        0.036 sec (  0.0% of sigma)
Total Time for computing (T)           ...     1658.973 sec ( 30.8% of ALL)


Maximum memory used throughout the entire MDCI-calculation: 15310.3 MB

-------------------
EXTRAPOLATED ENERGY
-------------------


-----------------------------------------------------------------
                      EP1 - MDCI extrapolation:
-----------------------------------------------------------------
NOTE: We use as reference SCF energy, for the extrapolation, the one from the MDCI module and not the one 
from the SCF calculation. In case the first step is a DFT calculation these two might be different.

NOTE: For the SCF part we extrapolate based on the scheme proposed in J. Chem. Phys. 2008, 129, 184116
using the exponents from J. Chem. Theory Comput., 7, 33-43 (2011)

NOTE: For the correlation part we extrapolate based on the scheme proposed in J. Chem. Phys. 1997, 106, 9639
using the exponents from J. Chem. Theory Comput., 7, 33-43 (2011)


Alpha(2/3)     : 10.390 (SCF Extrapolation)
Beta(2/3)      :  2.400 (correlation extrapolation)

SCF energy with basis def2-SVP:                       -1830.708607780
SCF energy with basis def2-TZVP:                      -1831.488720454
Extrapolated CBS SCF energy (2/3) :                   -1831.518523210 (-0.029802756) 

MDCI energy with basis def2-SVP:                         -2.428947474
MDCI energy with basis def2-TZVP:                        -2.970328725
Extrapolated CBS correlation energy (2/3) :              -3.299200400 (-0.328871675)

Estimated CBS total energy (2/3) :                    -1834.817723609



-------------------------   --------------------
FINAL SINGLE POINT ENERGY     -1834.817723609237
-------------------------   --------------------


                            ***************************************
                            *     ORCA property calculations      *
                            ***************************************


  WARNING: The energy has been calculated at the MDCI level but the densities
           used in the property calculations are still SCF densities
           MDCI response densities have not been calculated 
           use %mdci Density linearized end
           or  %mdci Density unrelaxed end
           or  %mdci Density orbopt end

                                    ---------------------
                                    Active property flags
                                    ---------------------
   (+) Dipole Moment


------------------------------------------------------------------------------
                       ORCA ELECTRIC PROPERTIES CALCULATION
------------------------------------------------------------------------------

Dipole Moment Calculation                       ... on
Quadrupole Moment Calculation                   ... off
Polarizability Calculation                      ... off
GBWName                                         ... Fe-CCNN_opt.gbw
Electron density                                ... Fe-CCNN_opt.scfp
The origin for moment calculation is the CENTER OF MASS  = ( 0.027450,  4.022505  0.000000)

-------------
DIPOLE MOMENT
-------------
                                X             Y             Z
Electronic contribution:      0.90800      -0.00004       0.00000
Nuclear contribution   :      0.11147       0.00001       0.00000
                        -----------------------------------------
Total Dipole Moment    :      1.01947      -0.00003       0.00000
                        -----------------------------------------
Magnitude (a.u.)       :      1.01947
Magnitude (Debye)      :      2.59129



--------------------
Rotational spectrum 
--------------------
 
Rotational constants in cm-1:     0.028386     0.021085     0.012098 
Rotational constants in MHz :   851.003714   632.104529   362.699961 

 Dipole components along the rotational axes: 
x,y,z [a.u.] :     0.000019    -1.019472     0.000000 
x,y,z [Debye]:     0.000049    -2.591291     0.000000 

 

Timings for individual modules:

Sum of individual times         ...    10574.841 sec (= 176.247 min)
GTO integral calculation        ...        4.669 sec (=   0.078 min)   0.0 %
SCF iterations                  ...      681.180 sec (=  11.353 min)   6.4 %
MDCI module                     ...     9888.992 sec (= 164.817 min)  93.5 %
                             ****ORCA TERMINATED NORMALLY****
TOTAL RUN TIME: 0 days 2 hours 56 minutes 17 seconds 199 msec
