 Entering Gaussian System, Link 0=g16
 Initial command:
 /apps/gaussian/16/avx2/g16/l1.exe "/blue/mingjieliu/wanghongyi/ligand/14mr/14mr_N2_1/Gau-11405.inp" -scrdir="/blue/mingjieliu/wanghongyi/ligand/14mr/14mr_N2_1/"
 Entering Link 1 = /apps/gaussian/16/avx2/g16/l1.exe PID=     11412.
  
 Copyright (c) 1988-2019, Gaussian, Inc.  All Rights Reserved.
  
 This is part of the Gaussian(R) 16 program.  It is based on
 the Gaussian(R) 09 system (copyright 2009, Gaussian, Inc.),
 the Gaussian(R) 03 system (copyright 2003, Gaussian, Inc.),
 the Gaussian(R) 98 system (copyright 1998, Gaussian, Inc.),
 the Gaussian(R) 94 system (copyright 1995, Gaussian, Inc.),
 the Gaussian 92(TM) system (copyright 1992, Gaussian, Inc.),
 the Gaussian 90(TM) system (copyright 1990, Gaussian, Inc.),
 the Gaussian 88(TM) system (copyright 1988, Gaussian, Inc.),
 the Gaussian 86(TM) system (copyright 1986, Carnegie Mellon
 University), and the Gaussian 82(TM) system (copyright 1983,
 Carnegie Mellon University). Gaussian is a federally registered
 trademark of Gaussian, Inc.
  
 This software contains proprietary and confidential information,
 including trade secrets, belonging to Gaussian, Inc.
  
 This software is provided under written license and may be
 used, copied, transmitted, or stored only in accord with that
 written license.
  
 The following legend is applicable only to US Government
 contracts under FAR:
  
                    RESTRICTED RIGHTS LEGEND
  
 Use, reproduction and disclosure by the US Government is
 subject to restrictions as set forth in subparagraphs (a)
 and (c) of the Commercial Computer Software - Restricted
 Rights clause in FAR 52.227-19.
  
 Gaussian, Inc.
 340 Quinnipiac St., Bldg. 40, Wallingford CT 06492
  
  
 ---------------------------------------------------------------
 Warning -- This program may not be used in any manner that
 competes with the business of Gaussian, Inc. or will provide
 assistance to any competitor of Gaussian, Inc.  The licensee
 of this program is prohibited from giving any competitor of
 Gaussian, Inc. access to this program.  By using this program,
 the user acknowledges that Gaussian, Inc. is engaged in the
 business of creating and licensing software in the field of
 computational chemistry and represents and warrants to the
 licensee that it is not a competitor of Gaussian, Inc. and that
 it will not use this program in any manner prohibited above.
 ---------------------------------------------------------------
  

 Cite this work as:
 Gaussian 16, Revision C.01,
 M. J. Frisch, G. W. Trucks, H. B. Schlegel, G. E. Scuseria, 
 M. A. Robb, J. R. Cheeseman, G. Scalmani, V. Barone, 
 G. A. Petersson, H. Nakatsuji, X. Li, M. Caricato, A. V. Marenich, 
 J. Bloino, B. G. Janesko, R. Gomperts, B. Mennucci, H. P. Hratchian, 
 J. V. Ortiz, A. F. Izmaylov, J. L. Sonnenberg, D. Williams-Young, 
 F. Ding, F. Lipparini, F. Egidi, J. Goings, B. Peng, A. Petrone, 
 T. Henderson, D. Ranasinghe, V. G. Zakrzewski, J. Gao, N. Rega, 
 G. Zheng, W. Liang, M. Hada, M. Ehara, K. Toyota, R. Fukuda, 
 J. Hasegawa, M. Ishida, T. Nakajima, Y. Honda, O. Kitao, H. Nakai, 
 T. Vreven, K. Throssell, J. A. Montgomery, Jr., J. E. Peralta, 
 F. Ogliaro, M. J. Bearpark, J. J. Heyd, E. N. Brothers, K. N. Kudin, 
 V. N. Staroverov, T. A. Keith, R. Kobayashi, J. Normand, 
 K. Raghavachari, A. P. Rendell, J. C. Burant, S. S. Iyengar, 
 J. Tomasi, M. Cossi, J. M. Millam, M. Klene, C. Adamo, R. Cammi, 
 J. W. Ochterski, R. L. Martin, K. Morokuma, O. Farkas, 
 J. B. Foresman, and D. J. Fox, Gaussian, Inc., Wallingford CT, 2019.
 
 ******************************************
 Gaussian 16:  ES64L-G16RevC.01  3-Jul-2019
                 2-Feb-2023 
 ******************************************
 %NProcShared=16
 Will use up to   16 processors via shared memory.
 -------------------------------------
 #n B3LYP/6-31G(d) Opt scf=xqc pop=nbo
 -------------------------------------
 1/18=20,19=15,26=3,38=1/1,3;
 2/9=110,12=2,17=6,18=5,40=1/2;
 3/5=1,6=6,7=1,11=2,25=1,30=1,71=1,74=-5/1,2,3;
 4//1;
 5/5=2,8=3,13=1,38=5/2,8;
 6/7=2,8=2,9=2,10=2,28=1,40=1/1,7;
 7//1,2,3,16;
 1/18=20,19=15,26=3/3(2);
 2/9=110/2;
 99//99;
 2/9=110/2;
 3/5=1,6=6,7=1,11=2,25=1,30=1,71=1,74=-5/1,2,3;
 4/5=5,16=3,69=1/1;
 5/5=2,8=3,13=1,38=5/2,8;
 7//1,2,3,16;
 1/18=20,19=15,26=3/3(-5);
 2/9=110/2;
 6/7=2,8=2,9=2,10=2,19=2,28=1,40=1/1,7;
 99/9=1/99;
 ---------
 14mr_N2_1
 ---------
 Symbolic Z-matrix:
 Charge =  0 Multiplicity = 1
 Fe                    0.        0.       -0.00003 
 N                     1.3297    1.27957  -0.00007 
 N                     1.32923  -1.27956  -0.00004 
 N                    -1.3297   -1.27957   0.00003 
 N                    -1.32923   1.27956   0.00003 
 C                    -1.18431   2.64008  -0.00002 
 C                    -1.18596  -2.63916   0.00001 
 N                    -0.00024  -3.27604   0. 
 C                     1.18431  -2.64008  -0.00001 
 C                    -2.58833  -0.70523   0.00004 
 H                     2.26588   4.50689   0.00007 
 H                    -2.26524   4.50755  -0.00007 
 C                     5.00534   0.68876   0.00004 
 C                     2.39265   3.43004   0.00004 
 C                     3.6376    2.85722   0.00005 
 C                     3.78301   1.43182   0.00002 
 C                     2.58833   0.70523  -0.00005 
 N                     0.00024   3.27604  -0.00001 
 C                     1.18596   2.63916  -0.00001 
 C                    -2.3919    3.43065  -0.00003 
 C                    -2.58806   0.70556   0.00003 
 C                     5.00499  -0.68966   0.00002 
 C                     2.58806  -0.70556  -0.00004 
 C                     3.78241  -1.43222  -0.00002 
 C                     3.63654  -2.85794   0. 
 C                     2.3919   -3.43065   0. 
 C                    -2.39265  -3.43004   0.00001 
 H                     2.26524  -4.50755   0.00002 
 H                    -2.26587  -4.50689   0. 
 H                    -4.52461   3.48528  -0.00003 
 C                    -3.63654   2.85794  -0.00002 
 C                    -3.78241   1.43222   0.00002 
 C                    -5.00499   0.68966   0.00001 
 H                    -5.94739   1.23116   0.00001 
 C                    -5.00534  -0.68876   0.00002 
 C                    -3.78301  -1.43182   0.00002 
 C                    -3.6376   -2.85722   0.00001 
 H                    -4.52565  -3.48458  -0.00001 
 H                    -5.94796  -1.22985   0. 
 H                     5.94796   1.22985   0.00009 
 H                     4.52565   3.48458   0.0001 
 H                     5.94739  -1.23115   0.00003 
 H                     4.52462  -3.48528   0.00001 
 N                     0.        0.        2. 
 N                     0.        0.        3. 
 

 GradGradGradGradGradGradGradGradGradGradGradGradGradGradGradGradGradGrad
 Berny optimization.
 Initialization pass.
                           ----------------------------
                           !    Initial Parameters    !
                           ! (Angstroms and Degrees)  !
 --------------------------                            --------------------------
 ! Name  Definition              Value          Derivative Info.                !
 --------------------------------------------------------------------------------
 ! R1    R(1,2)                  1.8454         estimate D2E/DX2                !
 ! R2    R(1,3)                  1.845          estimate D2E/DX2                !
 ! R3    R(1,4)                  1.8454         estimate D2E/DX2                !
 ! R4    R(1,5)                  1.845          estimate D2E/DX2                !
 ! R5    R(1,44)                 2.0            estimate D2E/DX2                !
 ! R6    R(2,17)                 1.3835         estimate D2E/DX2                !
 ! R7    R(2,19)                 1.3672         estimate D2E/DX2                !
 ! R8    R(3,9)                  1.3682         estimate D2E/DX2                !
 ! R9    R(3,23)                 1.3835         estimate D2E/DX2                !
 ! R10   R(4,7)                  1.3672         estimate D2E/DX2                !
 ! R11   R(4,10)                 1.3835         estimate D2E/DX2                !
 ! R12   R(5,6)                  1.3682         estimate D2E/DX2                !
 ! R13   R(5,21)                 1.3835         estimate D2E/DX2                !
 ! R14   R(6,18)                 1.3445         estimate D2E/DX2                !
 ! R15   R(6,20)                 1.4434         estimate D2E/DX2                !
 ! R16   R(7,8)                  1.3459         estimate D2E/DX2                !
 ! R17   R(7,27)                 1.4428         estimate D2E/DX2                !
 ! R18   R(8,9)                  1.3445         estimate D2E/DX2                !
 ! R19   R(9,26)                 1.4434         estimate D2E/DX2                !
 ! R20   R(10,21)                1.4108         estimate D2E/DX2                !
 ! R21   R(10,36)                1.3983         estimate D2E/DX2                !
 ! R22   R(11,14)                1.0843         estimate D2E/DX2                !
 ! R23   R(12,20)                1.0843         estimate D2E/DX2                !
 ! R24   R(13,16)                1.4305         estimate D2E/DX2                !
 ! R25   R(13,22)                1.3784         estimate D2E/DX2                !
 ! R26   R(13,40)                1.0869         estimate D2E/DX2                !
 ! R27   R(14,15)                1.3704         estimate D2E/DX2                !
 ! R28   R(14,19)                1.4428         estimate D2E/DX2                !
 ! R29   R(15,16)                1.4328         estimate D2E/DX2                !
 ! R30   R(15,41)                1.0873         estimate D2E/DX2                !
 ! R31   R(16,17)                1.3983         estimate D2E/DX2                !
 ! R32   R(17,23)                1.4108         estimate D2E/DX2                !
 ! R33   R(18,19)                1.3459         estimate D2E/DX2                !
 ! R34   R(20,31)                1.3701         estimate D2E/DX2                !
 ! R35   R(21,32)                1.398          estimate D2E/DX2                !
 ! R36   R(22,24)                1.4304         estimate D2E/DX2                !
 ! R37   R(22,42)                1.0869         estimate D2E/DX2                !
 ! R38   R(23,24)                1.398          estimate D2E/DX2                !
 ! R39   R(24,25)                1.4332         estimate D2E/DX2                !
 ! R40   R(25,26)                1.3701         estimate D2E/DX2                !
 ! R41   R(25,43)                1.0873         estimate D2E/DX2                !
 ! R42   R(26,28)                1.0843         estimate D2E/DX2                !
 ! R43   R(27,29)                1.0843         estimate D2E/DX2                !
 ! R44   R(27,37)                1.3704         estimate D2E/DX2                !
 ! R45   R(30,31)                1.0873         estimate D2E/DX2                !
 ! R46   R(31,32)                1.4332         estimate D2E/DX2                !
 ! R47   R(32,33)                1.4304         estimate D2E/DX2                !
 ! R48   R(33,34)                1.0869         estimate D2E/DX2                !
 ! R49   R(33,35)                1.3784         estimate D2E/DX2                !
 ! R50   R(35,36)                1.4305         estimate D2E/DX2                !
 ! R51   R(35,39)                1.0869         estimate D2E/DX2                !
 ! R52   R(36,37)                1.4328         estimate D2E/DX2                !
 ! R53   R(37,38)                1.0873         estimate D2E/DX2                !
 ! R54   R(44,45)                1.0            estimate D2E/DX2                !
 ! A1    A(2,1,3)               87.8086         estimate D2E/DX2                !
 ! A2    A(2,1,5)               92.1914         estimate D2E/DX2                !
 ! A3    A(2,1,44)              90.0012         estimate D2E/DX2                !
 ! A4    A(3,1,4)               92.1914         estimate D2E/DX2                !
 ! A5    A(3,1,44)              90.0003         estimate D2E/DX2                !
 ! A6    A(4,1,5)               87.8086         estimate D2E/DX2                !
 ! A7    A(4,1,44)              89.9981         estimate D2E/DX2                !
 ! A8    A(5,1,44)              89.9981         estimate D2E/DX2                !
 ! A9    A(1,2,17)             111.5724         estimate D2E/DX2                !
 ! A10   A(1,2,19)             127.8643         estimate D2E/DX2                !
 ! A11   A(17,2,19)            120.5633         estimate D2E/DX2                !
 ! A12   A(1,3,9)              127.8291         estimate D2E/DX2                !
 ! A13   A(1,3,23)             111.5788         estimate D2E/DX2                !
 ! A14   A(9,3,23)             120.5921         estimate D2E/DX2                !
 ! A15   A(1,4,7)              127.8643         estimate D2E/DX2                !
 ! A16   A(1,4,10)             111.5724         estimate D2E/DX2                !
 ! A17   A(7,4,10)             120.5633         estimate D2E/DX2                !
 ! A18   A(1,5,6)              127.8291         estimate D2E/DX2                !
 ! A19   A(1,5,21)             111.5788         estimate D2E/DX2                !
 ! A20   A(6,5,21)             120.5921         estimate D2E/DX2                !
 ! A21   A(5,6,18)             124.3105         estimate D2E/DX2                !
 ! A22   A(5,6,20)             117.1314         estimate D2E/DX2                !
 ! A23   A(18,6,20)            118.5581         estimate D2E/DX2                !
 ! A24   A(4,7,8)              124.2764         estimate D2E/DX2                !
 ! A25   A(4,7,27)             117.2063         estimate D2E/DX2                !
 ! A26   A(8,7,27)             118.5173         estimate D2E/DX2                !
 ! A27   A(7,8,9)              123.5282         estimate D2E/DX2                !
 ! A28   A(3,9,8)              124.3105         estimate D2E/DX2                !
 ! A29   A(3,9,26)             117.1314         estimate D2E/DX2                !
 ! A30   A(8,9,26)             118.5581         estimate D2E/DX2                !
 ! A31   A(4,10,21)            114.5173         estimate D2E/DX2                !
 ! A32   A(4,10,36)            124.1643         estimate D2E/DX2                !
 ! A33   A(21,10,36)           121.3184         estimate D2E/DX2                !
 ! A34   A(16,13,22)           121.2811         estimate D2E/DX2                !
 ! A35   A(16,13,40)           118.8474         estimate D2E/DX2                !
 ! A36   A(22,13,40)           119.8716         estimate D2E/DX2                !
 ! A37   A(11,14,15)           121.422          estimate D2E/DX2                !
 ! A38   A(11,14,19)           116.5272         estimate D2E/DX2                !
 ! A39   A(15,14,19)           122.0508         estimate D2E/DX2                !
 ! A40   A(14,15,16)           120.5327         estimate D2E/DX2                !
 ! A41   A(14,15,41)           120.053          estimate D2E/DX2                !
 ! A42   A(16,15,41)           119.4144         estimate D2E/DX2                !
 ! A43   A(13,16,15)           127.1204         estimate D2E/DX2                !
 ! A44   A(13,16,17)           117.3969         estimate D2E/DX2                !
 ! A45   A(15,16,17)           115.4827         estimate D2E/DX2                !
 ! A46   A(2,17,16)            124.1643         estimate D2E/DX2                !
 ! A47   A(2,17,23)            114.5173         estimate D2E/DX2                !
 ! A48   A(16,17,23)           121.3184         estimate D2E/DX2                !
 ! A49   A(6,18,19)            123.5282         estimate D2E/DX2                !
 ! A50   A(2,19,14)            117.2063         estimate D2E/DX2                !
 ! A51   A(2,19,18)            124.2764         estimate D2E/DX2                !
 ! A52   A(14,19,18)           118.5173         estimate D2E/DX2                !
 ! A53   A(6,20,12)            116.5034         estimate D2E/DX2                !
 ! A54   A(6,20,31)            122.0794         estimate D2E/DX2                !
 ! A55   A(12,20,31)           121.4171         estimate D2E/DX2                !
 ! A56   A(5,21,10)            114.523          estimate D2E/DX2                !
 ! A57   A(5,21,32)            124.1711         estimate D2E/DX2                !
 ! A58   A(10,21,32)           121.306          estimate D2E/DX2                !
 ! A59   A(13,22,24)           121.2878         estimate D2E/DX2                !
 ! A60   A(13,22,42)           119.8665         estimate D2E/DX2                !
 ! A61   A(24,22,42)           118.8456         estimate D2E/DX2                !
 ! A62   A(3,23,17)            114.523          estimate D2E/DX2                !
 ! A63   A(3,23,24)            124.1711         estimate D2E/DX2                !
 ! A64   A(17,23,24)           121.306          estimate D2E/DX2                !
 ! A65   A(22,24,23)           117.4098         estimate D2E/DX2                !
 ! A66   A(22,24,25)           127.1151         estimate D2E/DX2                !
 ! A67   A(23,24,25)           115.4752         estimate D2E/DX2                !
 ! A68   A(24,25,26)           120.5509         estimate D2E/DX2                !
 ! A69   A(24,25,43)           119.3956         estimate D2E/DX2                !
 ! A70   A(26,25,43)           120.0535         estimate D2E/DX2                !
 ! A71   A(9,26,25)            122.0794         estimate D2E/DX2                !
 ! A72   A(9,26,28)            116.5034         estimate D2E/DX2                !
 ! A73   A(25,26,28)           121.4171         estimate D2E/DX2                !
 ! A74   A(7,27,29)            116.5267         estimate D2E/DX2                !
 ! A75   A(7,27,37)            122.0508         estimate D2E/DX2                !
 ! A76   A(29,27,37)           121.4225         estimate D2E/DX2                !
 ! A77   A(20,31,30)           120.0532         estimate D2E/DX2                !
 ! A78   A(20,31,32)           120.5509         estimate D2E/DX2                !
 ! A79   A(30,31,32)           119.3959         estimate D2E/DX2                !
 ! A80   A(21,32,31)           115.4752         estimate D2E/DX2                !
 ! A81   A(21,32,33)           117.4098         estimate D2E/DX2                !
 ! A82   A(31,32,33)           127.1151         estimate D2E/DX2                !
 ! A83   A(32,33,34)           118.8452         estimate D2E/DX2                !
 ! A84   A(32,33,35)           121.2878         estimate D2E/DX2                !
 ! A85   A(34,33,35)           119.867          estimate D2E/DX2                !
 ! A86   A(33,35,36)           121.2811         estimate D2E/DX2                !
 ! A87   A(33,35,39)           119.8716         estimate D2E/DX2                !
 ! A88   A(36,35,39)           118.8474         estimate D2E/DX2                !
 ! A89   A(10,36,35)           117.3969         estimate D2E/DX2                !
 ! A90   A(10,36,37)           115.4827         estimate D2E/DX2                !
 ! A91   A(35,36,37)           127.1204         estimate D2E/DX2                !
 ! A92   A(27,37,36)           120.5327         estimate D2E/DX2                !
 ! A93   A(27,37,38)           120.053          estimate D2E/DX2                !
 ! A94   A(36,37,38)           119.4144         estimate D2E/DX2                !
 ! A95   L(2,1,4,3,-1)         180.0            estimate D2E/DX2                !
 ! A96   L(3,1,5,2,-1)         180.0            estimate D2E/DX2                !
 ! A97   L(1,44,45,11,-1)      180.0            estimate D2E/DX2                !
 ! A98   L(2,1,4,3,-2)         179.9994         estimate D2E/DX2                !
 ! A99   L(3,1,5,2,-2)         180.0016         estimate D2E/DX2                !
 ! A100  L(1,44,45,11,-2)      180.0            estimate D2E/DX2                !
 ! D1    D(3,1,2,17)            -0.0016         estimate D2E/DX2                !
 ! D2    D(3,1,2,19)          -179.9961         estimate D2E/DX2                !
 ! D3    D(5,1,2,17)           179.9968         estimate D2E/DX2                !
 ! D4    D(5,1,2,19)             0.0023         estimate D2E/DX2                !
 ! D5    D(44,1,2,17)           89.9986         estimate D2E/DX2                !
 ! D6    D(44,1,2,19)          -89.9958         estimate D2E/DX2                !
 ! D7    D(2,1,3,9)            179.9994         estimate D2E/DX2                !
 ! D8    D(2,1,3,23)             0.0014         estimate D2E/DX2                !
 ! D9    D(4,1,3,9)              0.0            estimate D2E/DX2                !
 ! D10   D(4,1,3,23)          -179.998          estimate D2E/DX2                !
 ! D11   D(44,1,3,9)            89.9982         estimate D2E/DX2                !
 ! D12   D(44,1,3,23)          -89.9999         estimate D2E/DX2                !
 ! D13   D(3,1,4,7)             -0.0023         estimate D2E/DX2                !
 ! D14   D(3,1,4,10)          -179.9995         estimate D2E/DX2                !
 ! D15   D(5,1,4,7)            179.9993         estimate D2E/DX2                !
 ! D16   D(5,1,4,10)             0.0021         estimate D2E/DX2                !
 ! D17   D(44,1,4,7)           -90.0025         estimate D2E/DX2                !
 ! D18   D(44,1,4,10)           90.0003         estimate D2E/DX2                !
 ! D19   D(2,1,5,6)              0.0029         estimate D2E/DX2                !
 ! D20   D(2,1,5,21)           179.9981         estimate D2E/DX2                !
 ! D21   D(4,1,5,6)           -179.9977         estimate D2E/DX2                !
 ! D22   D(4,1,5,21)            -0.0025         estimate D2E/DX2                !
 ! D23   D(44,1,5,6)            90.0041         estimate D2E/DX2                !
 ! D24   D(44,1,5,21)          -90.0007         estimate D2E/DX2                !
 ! D25   D(1,2,17,16)         -179.9954         estimate D2E/DX2                !
 ! D26   D(1,2,17,23)            0.0016         estimate D2E/DX2                !
 ! D27   D(19,2,17,16)          -0.0005         estimate D2E/DX2                !
 ! D28   D(19,2,17,23)         179.9965         estimate D2E/DX2                !
 ! D29   D(1,2,19,14)          179.9955         estimate D2E/DX2                !
 ! D30   D(1,2,19,18)           -0.0052         estimate D2E/DX2                !
 ! D31   D(17,2,19,14)           0.0015         estimate D2E/DX2                !
 ! D32   D(17,2,19,18)        -179.9993         estimate D2E/DX2                !
 ! D33   D(1,3,9,8)              0.0017         estimate D2E/DX2                !
 ! D34   D(1,3,9,26)          -179.9988         estimate D2E/DX2                !
 ! D35   D(23,3,9,8)           179.9996         estimate D2E/DX2                !
 ! D36   D(23,3,9,26)           -0.0009         estimate D2E/DX2                !
 ! D37   D(1,3,23,17)           -0.0008         estimate D2E/DX2                !
 ! D38   D(1,3,23,24)          179.9987         estimate D2E/DX2                !
 ! D39   D(9,3,23,17)         -179.999          estimate D2E/DX2                !
 ! D40   D(9,3,23,24)            0.0005         estimate D2E/DX2                !
 ! D41   D(1,4,7,8)              0.0031         estimate D2E/DX2                !
 ! D42   D(1,4,7,27)          -179.9974         estimate D2E/DX2                !
 ! D43   D(10,4,7,8)          -180.0            estimate D2E/DX2                !
 ! D44   D(10,4,7,27)           -0.0004         estimate D2E/DX2                !
 ! D45   D(1,4,10,21)           -0.0012         estimate D2E/DX2                !
 ! D46   D(1,4,10,36)          179.9969         estimate D2E/DX2                !
 ! D47   D(7,4,10,21)         -179.9986         estimate D2E/DX2                !
 ! D48   D(7,4,10,36)           -0.0005         estimate D2E/DX2                !
 ! D49   D(1,5,6,18)            -0.0059         estimate D2E/DX2                !
 ! D50   D(1,5,6,20)           179.9966         estimate D2E/DX2                !
 ! D51   D(21,5,6,18)          179.9993         estimate D2E/DX2                !
 ! D52   D(21,5,6,20)            0.0019         estimate D2E/DX2                !
 ! D53   D(1,5,21,10)            0.0025         estimate D2E/DX2                !
 ! D54   D(1,5,21,32)         -179.9975         estimate D2E/DX2                !
 ! D55   D(6,5,21,10)          179.998          estimate D2E/DX2                !
 ! D56   D(6,5,21,32)           -0.0019         estimate D2E/DX2                !
 ! D57   D(5,6,18,19)            0.0031         estimate D2E/DX2                !
 ! D58   D(20,6,18,19)        -179.9995         estimate D2E/DX2                !
 ! D59   D(5,6,20,12)         -180.0            estimate D2E/DX2                !
 ! D60   D(5,6,20,31)           -0.0014         estimate D2E/DX2                !
 ! D61   D(18,6,20,12)           0.0024         estimate D2E/DX2                !
 ! D62   D(18,6,20,31)        -179.999          estimate D2E/DX2                !
 ! D63   D(4,7,8,9)             -0.001          estimate D2E/DX2                !
 ! D64   D(27,7,8,9)           179.9995         estimate D2E/DX2                !
 ! D65   D(4,7,27,29)         -179.9996         estimate D2E/DX2                !
 ! D66   D(4,7,27,37)            0.0009         estimate D2E/DX2                !
 ! D67   D(8,7,27,29)           -0.0001         estimate D2E/DX2                !
 ! D68   D(8,7,27,37)         -179.9995         estimate D2E/DX2                !
 ! D69   D(7,8,9,3)             -0.0015         estimate D2E/DX2                !
 ! D70   D(7,8,9,26)           179.9991         estimate D2E/DX2                !
 ! D71   D(3,9,26,25)            0.001          estimate D2E/DX2                !
 ! D72   D(3,9,26,28)         -179.9998         estimate D2E/DX2                !
 ! D73   D(8,9,26,25)         -179.9995         estimate D2E/DX2                !
 ! D74   D(8,9,26,28)           -0.0003         estimate D2E/DX2                !
 ! D75   D(4,10,21,5)           -0.0008         estimate D2E/DX2                !
 ! D76   D(4,10,21,32)         179.9991         estimate D2E/DX2                !
 ! D77   D(36,10,21,5)        -179.999          estimate D2E/DX2                !
 ! D78   D(36,10,21,32)          0.001          estimate D2E/DX2                !
 ! D79   D(4,10,36,35)        -179.9994         estimate D2E/DX2                !
 ! D80   D(4,10,36,37)           0.001          estimate D2E/DX2                !
 ! D81   D(21,10,36,35)         -0.0014         estimate D2E/DX2                !
 ! D82   D(21,10,36,37)        179.999          estimate D2E/DX2                !
 ! D83   D(22,13,16,15)        179.9993         estimate D2E/DX2                !
 ! D84   D(22,13,16,17)         -0.0014         estimate D2E/DX2                !
 ! D85   D(40,13,16,15)          0.0005         estimate D2E/DX2                !
 ! D86   D(40,13,16,17)        179.9998         estimate D2E/DX2                !
 ! D87   D(16,13,22,24)         -0.0001         estimate D2E/DX2                !
 ! D88   D(16,13,22,42)        179.9996         estimate D2E/DX2                !
 ! D89   D(40,13,22,24)        179.9988         estimate D2E/DX2                !
 ! D90   D(40,13,22,42)         -0.0015         estimate D2E/DX2                !
 ! D91   D(11,14,15,16)        179.9995         estimate D2E/DX2                !
 ! D92   D(11,14,15,41)          0.0007         estimate D2E/DX2                !
 ! D93   D(19,14,15,16)         -0.0004         estimate D2E/DX2                !
 ! D94   D(19,14,15,41)       -179.9993         estimate D2E/DX2                !
 ! D95   D(11,14,19,2)         179.999          estimate D2E/DX2                !
 ! D96   D(11,14,19,18)         -0.0003         estimate D2E/DX2                !
 ! D97   D(15,14,19,2)          -0.0011         estimate D2E/DX2                !
 ! D98   D(15,14,19,18)        179.9997         estimate D2E/DX2                !
 ! D99   D(14,15,16,13)       -179.9993         estimate D2E/DX2                !
 ! D100  D(14,15,16,17)          0.0014         estimate D2E/DX2                !
 ! D101  D(41,15,16,13)         -0.0004         estimate D2E/DX2                !
 ! D102  D(41,15,16,17)       -179.9997         estimate D2E/DX2                !
 ! D103  D(13,16,17,2)         179.9996         estimate D2E/DX2                !
 ! D104  D(13,16,17,23)          0.0028         estimate D2E/DX2                !
 ! D105  D(15,16,17,2)          -0.001          estimate D2E/DX2                !
 ! D106  D(15,16,17,23)       -179.9978         estimate D2E/DX2                !
 ! D107  D(2,17,23,3)           -0.0005         estimate D2E/DX2                !
 ! D108  D(2,17,23,24)         180.0            estimate D2E/DX2                !
 ! D109  D(16,17,23,3)         179.9966         estimate D2E/DX2                !
 ! D110  D(16,17,23,24)         -0.0029         estimate D2E/DX2                !
 ! D111  D(6,18,19,2)            0.0025         estimate D2E/DX2                !
 ! D112  D(6,18,19,14)        -179.9983         estimate D2E/DX2                !
 ! D113  D(6,20,31,30)        -179.9999         estimate D2E/DX2                !
 ! D114  D(6,20,31,32)           0.0009         estimate D2E/DX2                !
 ! D115  D(12,20,31,30)         -0.0014         estimate D2E/DX2                !
 ! D116  D(12,20,31,32)        179.9994         estimate D2E/DX2                !
 ! D117  D(5,21,32,31)           0.0013         estimate D2E/DX2                !
 ! D118  D(5,21,32,33)         179.9995         estimate D2E/DX2                !
 ! D119  D(10,21,32,31)       -179.9986         estimate D2E/DX2                !
 ! D120  D(10,21,32,33)         -0.0005         estimate D2E/DX2                !
 ! D121  D(13,22,24,23)          0.0001         estimate D2E/DX2                !
 ! D122  D(13,22,24,25)       -179.9978         estimate D2E/DX2                !
 ! D123  D(42,22,24,23)       -179.9996         estimate D2E/DX2                !
 ! D124  D(42,22,24,25)          0.0025         estimate D2E/DX2                !
 ! D125  D(3,23,24,22)        -179.9981         estimate D2E/DX2                !
 ! D126  D(3,23,24,25)           0.0001         estimate D2E/DX2                !
 ! D127  D(17,23,24,22)          0.0014         estimate D2E/DX2                !
 ! D128  D(17,23,24,25)        179.9995         estimate D2E/DX2                !
 ! D129  D(22,24,25,26)        179.9979         estimate D2E/DX2                !
 ! D130  D(22,24,25,43)         -0.0025         estimate D2E/DX2                !
 ! D131  D(23,24,25,26)         -0.0001         estimate D2E/DX2                !
 ! D132  D(23,24,25,43)        179.9996         estimate D2E/DX2                !
 ! D133  D(24,25,26,9)          -0.0005         estimate D2E/DX2                !
 ! D134  D(24,25,26,28)       -179.9997         estimate D2E/DX2                !
 ! D135  D(43,25,26,9)         179.9999         estimate D2E/DX2                !
 ! D136  D(43,25,26,28)          0.0006         estimate D2E/DX2                !
 ! D137  D(7,27,37,36)          -0.0005         estimate D2E/DX2                !
 ! D138  D(7,27,37,38)         179.9988         estimate D2E/DX2                !
 ! D139  D(29,27,37,36)       -179.9998         estimate D2E/DX2                !
 ! D140  D(29,27,37,38)         -0.0006         estimate D2E/DX2                !
 ! D141  D(20,31,32,21)         -0.0008         estimate D2E/DX2                !
 ! D142  D(20,31,32,33)       -179.9987         estimate D2E/DX2                !
 ! D143  D(30,31,32,21)        180.0            estimate D2E/DX2                !
 ! D144  D(30,31,32,33)          0.002          estimate D2E/DX2                !
 ! D145  D(21,32,33,34)        179.9995         estimate D2E/DX2                !
 ! D146  D(21,32,33,35)          0.0005         estimate D2E/DX2                !
 ! D147  D(31,32,33,34)         -0.0025         estimate D2E/DX2                !
 ! D148  D(31,32,33,35)        179.9984         estimate D2E/DX2                !
 ! D149  D(32,33,35,36)         -0.001          estimate D2E/DX2                !
 ! D150  D(32,33,35,39)       -179.9993         estimate D2E/DX2                !
 ! D151  D(34,33,35,36)        180.0            estimate D2E/DX2                !
 ! D152  D(34,33,35,39)          0.0017         estimate D2E/DX2                !
 ! D153  D(33,35,36,10)          0.0014         estimate D2E/DX2                !
 ! D154  D(33,35,36,37)       -179.999          estimate D2E/DX2                !
 ! D155  D(39,35,36,10)        179.9997         estimate D2E/DX2                !
 ! D156  D(39,35,36,37)         -0.0007         estimate D2E/DX2                !
 ! D157  D(10,36,37,27)         -0.0005         estimate D2E/DX2                !
 ! D158  D(10,36,37,38)       -179.9997         estimate D2E/DX2                !
 ! D159  D(35,36,37,27)        179.9999         estimate D2E/DX2                !
 ! D160  D(35,36,37,38)          0.0007         estimate D2E/DX2                !
 --------------------------------------------------------------------------------
 Trust Radius=3.00D-01 FncErr=1.00D-07 GrdErr=1.00D-06 EigMax=2.50D+02 EigMin=1.00D-04
 Number of steps in this run=    270 maximum allowed number of steps=    270.
 GradGradGradGradGradGradGradGradGradGradGradGradGradGradGradGradGradGrad

                          Input orientation:                          
 ---------------------------------------------------------------------
 Center     Atomic      Atomic             Coordinates (Angstroms)
 Number     Number       Type             X           Y           Z
 ---------------------------------------------------------------------
      1         26           0        0.000000    0.000000   -0.000030
      2          7           0        1.329700    1.279570   -0.000070
      3          7           0        1.329230   -1.279560   -0.000040
      4          7           0       -1.329700   -1.279570    0.000030
      5          7           0       -1.329230    1.279560    0.000030
      6          6           0       -1.184310    2.640080   -0.000020
      7          6           0       -1.185960   -2.639160    0.000010
      8          7           0       -0.000240   -3.276040    0.000000
      9          6           0        1.184310   -2.640080   -0.000010
     10          6           0       -2.588330   -0.705230    0.000040
     11          1           0        2.265880    4.506890    0.000070
     12          1           0       -2.265240    4.507550   -0.000070
     13          6           0        5.005340    0.688760    0.000040
     14          6           0        2.392650    3.430040    0.000040
     15          6           0        3.637600    2.857220    0.000050
     16          6           0        3.783010    1.431820    0.000020
     17          6           0        2.588330    0.705230   -0.000050
     18          7           0        0.000240    3.276040   -0.000010
     19          6           0        1.185960    2.639160   -0.000010
     20          6           0       -2.391900    3.430650   -0.000030
     21          6           0       -2.588060    0.705560    0.000030
     22          6           0        5.004990   -0.689660    0.000020
     23          6           0        2.588060   -0.705560   -0.000040
     24          6           0        3.782410   -1.432220   -0.000020
     25          6           0        3.636540   -2.857940    0.000000
     26          6           0        2.391900   -3.430650    0.000000
     27          6           0       -2.392650   -3.430040    0.000010
     28          1           0        2.265240   -4.507550    0.000020
     29          1           0       -2.265870   -4.506890    0.000000
     30          1           0       -4.524610    3.485280   -0.000030
     31          6           0       -3.636540    2.857940   -0.000020
     32          6           0       -3.782410    1.432220    0.000020
     33          6           0       -5.004990    0.689660    0.000010
     34          1           0       -5.947390    1.231160    0.000010
     35          6           0       -5.005340   -0.688760    0.000020
     36          6           0       -3.783010   -1.431820    0.000020
     37          6           0       -3.637600   -2.857220    0.000010
     38          1           0       -4.525650   -3.484580   -0.000010
     39          1           0       -5.947960   -1.229850    0.000000
     40          1           0        5.947960    1.229850    0.000090
     41          1           0        4.525650    3.484580    0.000100
     42          1           0        5.947390   -1.231150    0.000030
     43          1           0        4.524620   -3.485280    0.000010
     44          7           0        0.000000    0.000000    2.000000
     45          7           0        0.000000    0.000000    3.000000
 ---------------------------------------------------------------------
                    Distance matrix (angstroms):
                    1          2          3          4          5
     1  Fe   0.000000
     2  N    1.845373   0.000000
     3  N    1.845027   2.559130   0.000000
     4  N    1.845373   3.690746   2.658930   0.000000
     5  N    1.845027   2.658930   3.690055   2.559130   0.000000
     6  C    2.893547   2.858537   4.656336   3.922346   1.368217
     7  C    2.893383   4.656715   2.859142   1.367167   3.921338
     8  N    3.276040   4.745769   2.398629   2.398616   4.745493
     9  C    2.893547   3.922346   1.368217   2.858537   4.656336
    10  C    2.682686   4.392083   3.959436   1.383480   2.350473
    11  H    5.044430   3.360361   5.861767   6.812585   4.831198
    12  H    5.044732   4.831506   6.812551   5.862252   3.360957
    13  C    5.052506   3.722820   4.169900   6.633781   6.362061
    14  C    4.182099   2.398830   4.828167   6.003026   4.298483
    15  C    4.625564   2.795600   4.737248   6.464294   5.211373
    16  C    4.044907   2.458030   3.656859   5.787179   5.114507
    17  C    2.682686   1.383480   2.350473   4.392083   3.959436
    18  N    3.276040   2.398616   4.745493   4.745769   2.398629
    19  C    2.893383   1.367167   3.921338   4.656715   2.859142
    20  C    4.182170   4.298541   6.002740   4.828503   2.399261
    21  C    2.682512   3.959587   4.391567   2.350364   1.383520
    22  C    5.052282   4.169607   3.722794   6.362098   6.633262
    23  C    2.682512   2.350364   1.383520   3.959587   4.391567
    24  C    4.044488   3.656445   2.457925   5.114389   5.786416
    25  C    4.625175   4.737140   2.795526   5.211026   6.463573
    26  C    4.182170   4.828503   2.399261   4.298541   6.002740
    27  C    4.182099   6.003026   4.298483   2.398830   4.828167
    28  H    5.044732   5.862252   3.360957   4.831506   6.812551
    29  H    5.044425   6.812580   4.831191   3.360358   5.861766
    30  H    5.711328   6.256045   7.547923   5.736832   3.882738
    31  C    4.625175   5.211026   6.463573   4.737140   2.795526
    32  C    4.044488   5.114389   5.786416   3.656445   2.457925
    33  C    5.052282   6.362098   6.633262   4.169607   3.722794
    34  H    6.073484   7.277251   7.697591   5.256123   4.618414
    35  C    5.052506   6.633781   6.362061   3.722820   4.169900
    36  C    4.044907   5.787179   5.114507   2.458030   3.656859
    37  C    4.625564   6.464294   5.211373   2.795600   4.737248
    38  H    5.711725   7.548659   6.256335   3.882804   5.737084
    39  H    6.073776   7.698151   7.277360   4.618528   5.256406
    40  H    6.073776   4.618528   5.256406   7.698151   7.277360
    41  H    5.711725   3.882804   5.737084   7.548659   6.256335
    42  H    6.073482   5.256118   4.618414   7.277251   7.697588
    43  H    5.711336   5.736838   3.882746   6.256055   7.547931
    44  N    2.000030   2.721338   2.721082   2.721265   2.721030
    45  N    3.000030   3.522190   3.521983   3.522105   3.521924
                    6          7          8          9         10
     6  C    0.000000
     7  C    5.279240   0.000000
     8  N    6.033448   1.345938   0.000000
     9  C    5.787093   2.370270   1.344472   0.000000
    10  C    3.627998   2.388876   3.647914   4.239865   0.000000
    11  H    3.922855   7.936071   8.106127   7.228345   7.122468
    12  H    2.157743   7.227746   8.106448   7.936499   5.222783
    13  C    6.489947   7.029029   6.385567   5.067686   7.720559
    14  C    3.663152   7.045682   7.120213   6.189220   6.473841
    15  C    4.826797   7.312792   7.130972   6.019879   7.173092
    16  C    5.112158   6.423670   6.039613   4.830488   6.720190
    17  C    4.239865   5.042837   4.748811   3.627998   5.365371
    18  N    1.344472   6.032965   6.552080   6.033448   4.748811
    19  C    2.370270   5.786766   6.032965   5.279240   5.042837
    20  C    1.443355   6.188448   7.120374   7.045782   4.140542
    21  C    2.390164   3.626711   4.748679   5.042230   1.410790
    22  C    7.028129   6.490640   5.633976   4.289724   7.593336
    23  C    5.042230   4.240523   3.647830   2.390164   5.176390
    24  C    6.422767   5.112867   4.208101   2.865144   6.412086
    25  C    7.312238   4.827460   3.660734   2.461888   6.586590
    26  C    7.045782   3.664361   2.397131   1.443355   5.677200
    27  C    6.189220   1.442772   2.397361   3.663152   2.731827
    28  H    7.936499   3.924495   2.578569   2.157743   6.165613
    29  H    7.228344   2.157457   2.578385   3.922846   3.815311
    30  H    3.445572   6.975339   8.135439   8.373279   4.616227
    31  C    2.461888   6.018592   7.130806   7.312238   3.714152
    32  C    2.865144   4.828839   6.039248   6.422767   2.448371
    33  C    4.289724   5.066165   6.385476   7.028129   2.790334
    34  H    4.967090   6.136008   7.462134   8.114656   3.877227
    35  C    5.067686   4.288557   5.634274   6.489947   2.417066
    36  C    4.830488   2.863973   4.208384   5.112158   1.398282
    37  C    6.019879   2.461319   3.661393   4.826797   2.394166
    38  H    6.976820   3.445035   4.530212   5.772073   3.387919
    39  H    6.137485   4.966165   6.289854   7.270352   3.400344
    40  H    7.270352   8.115544   7.462180   6.137485   8.752873
    41  H    5.772073   8.373929   8.135703   6.976820   8.256102
    42  H    8.114651   7.270982   6.289346   4.967093   8.551907
    43  H    8.373286   5.772923   4.529695   3.445582   7.636932
    44  N    3.517484   3.517332   3.838286   3.517478   3.346138
    45  N    4.168061   4.167926   4.442121   4.168054   4.024495
                   11         12         13         14         15
    11  H    0.000000
    12  H    4.531120   0.000000
    13  C    4.699229   8.212459   0.000000
    14  C    1.084286   4.780896   3.786920   0.000000
    15  C    2.145467   6.129201   2.563773   1.370410   0.000000
    16  C    3.428956   6.785385   1.430465   2.434334   1.432798
    17  C    3.815310   6.165613   2.417066   2.731827   2.394166
    18  N    2.578394   2.578569   5.634274   2.397361   3.661393
    19  C    2.157462   3.924495   4.288557   1.442772   2.461319
    20  C    4.780503   1.084323   7.889051   4.784550   6.056706
    21  C    6.165293   3.815670   7.593419   5.677170   6.586993
    22  C    5.874254   8.936847   1.378420   4.878140   3.801330
    23  C    5.222397   7.122572   2.790586   4.140214   3.714153
    24  C    6.129673   8.476729   2.448288   5.056976   4.291884
    25  C    7.491290   9.438297   3.801670   6.409833   5.715160
    26  C    7.938540   9.203476   4.878484   6.860690   6.410076
    27  C    9.203084   7.938612   8.467276   8.364197   8.711691
    28  H    9.014440  10.089464   5.874503   7.938612   7.491543
    29  H   10.088855   9.014440   8.936737   9.203079   9.438277
    30  H    6.866909   2.479877   9.931791   6.917481   8.186338
    31  C    6.128425   2.145152   8.909963   6.056272   7.274140
    32  C    6.784940   3.429207   8.819143   6.490197   7.555605
    33  C    8.211991   4.699204  10.010330   7.888901   8.910257
    34  H    8.842410   4.928789  10.966152   8.625041   9.721939
    35  C    8.936745   5.874503  10.105012   8.467276   9.342076
    36  C    8.476871   6.130232   9.040573   7.859800   8.570958
    37  C    9.438283   7.491543   9.342076   8.711691   9.251127
    38  H   10.487539   8.305636  10.404640   9.781352  10.337170
    39  H   10.018850   6.817638  11.120065   9.554075  10.420514
    40  H    4.929169   8.843075   1.086881   4.181036   2.825968
    41  H    2.480258   6.867507   2.836673   2.133697   1.087296
    42  H    6.817523  10.018980   2.138577   5.861985   4.695732
    43  H    8.305221  10.487494   4.201631   7.236501   6.404226
    44  N    5.426416   5.426748   5.433936   4.635708   5.039409
    45  N    5.869059   5.869390   5.876017   5.146815   5.513215
                   16         17         18         19         20
    16  C    0.000000
    17  C    1.398282   0.000000
    18  N    4.208384   3.647914   0.000000
    19  C    2.863973   2.388876   1.345938   0.000000
    20  C    6.490365   5.677200   2.397131   3.664361   0.000000
    21  C    6.412331   5.176390   3.647830   4.240523   2.732141
    22  C    2.448247   2.790334   6.385476   5.066165   8.467050
    23  C    2.448734   1.410790   4.748679   3.626711   6.473657
    24  C    2.864040   2.448371   6.039248   4.828839   7.859364
    25  C    4.292260   3.714152   7.130806   6.018592   8.711398
    26  C    5.057549   4.140542   7.120374   6.188448   8.364340
    27  C    7.859800   6.473841   7.120213   7.045682   6.860690
    28  H    6.130232   5.222783   8.106448   7.227746   9.203476
    29  H    8.476864   7.122461   8.106124   7.936067   7.938540
    30  H    8.557643   7.636923   4.529685   5.772913   2.133410
    31  C    7.555365   6.586590   3.660734   4.827460   1.370082
    32  C    7.565420   6.412086   4.208101   5.112867   2.434592
    33  C    8.819283   7.593336   5.633976   6.490640   3.786986
    34  H    9.732469   8.551907   6.289343   7.270980   4.180821
    35  C    9.040573   7.720559   6.385567   7.029029   4.878484
    36  C    8.089814   6.720190   6.039613   6.423670   5.057549
    37  C    8.570958   7.173092   7.130972   7.312792   6.410076
    38  H    9.654264   8.256102   8.135703   8.373929   7.236940
    39  H   10.088422   8.752873   7.462180   8.115544   5.862237
    40  H    2.174351   3.400344   6.289854   4.966165   8.625357
    41  H    2.182965   3.387919   4.530212   3.445035   6.917760
    42  H    3.431610   3.877222   7.462128   6.136002   9.553855
    43  H    4.972711   4.616231   8.135445   6.975343   9.781019
    44  N    4.512338   3.346192   3.838291   3.517344   4.635803
    45  N    5.035986   4.024562   4.442128   4.167940   5.146914
                   21         22         23         24         25
    21  C    0.000000
    22  C    7.720171   0.000000
    23  C    5.365024   2.416982   0.000000
    24  C    6.719598   1.430419   1.398037   0.000000
    25  C    7.172460   2.564000   2.394170   1.433163   0.000000
    26  C    6.473657   3.786986   2.732141   2.434592   1.370082
    27  C    4.140214   7.888901   5.677170   6.490197   6.056272
    28  H    7.122572   4.699204   3.815670   3.429207   2.145152
    29  H    5.222398   8.211982   6.165286   6.784931   6.128416
    30  H    3.387782  10.404009   8.255496   9.653413  10.336383
    31  C    2.394170   9.341387   7.172460   8.570081   9.250350
    32  C    1.398037   9.039954   6.719598   8.088975   8.570081
    33  C    2.416982  10.104564   7.720171   9.039954   9.341387
    34  H    3.400199  11.119540   8.752416  10.087745  10.419811
    35  C    2.790586  10.010330   7.593419   8.819143   8.909963
    36  C    2.448734   8.819283   6.412331   7.565420   7.555365
    37  C    3.714153   8.910257   6.586993   7.555605   7.274140
    38  H    4.616441   9.932003   7.637265   8.557806   8.186209
    39  H    3.877466  10.966263   8.552106   9.732474   9.721796
    40  H    8.552106   2.138624   3.877466   3.431650   4.696029
    41  H    7.637265   4.201672   4.616441   4.972658   6.404536
    42  H    8.752414   1.086890   3.400197   2.174297   2.826035
    43  H    8.255505   2.836591   3.387788   2.183101   1.087309
    44  N    3.346005   5.433735   3.346047   4.511980   5.039072
    45  N    4.024387   5.875835   4.024439   5.035673   5.512916
                   26         27         28         29         30
    26  C    0.000000
    27  C    4.784550   0.000000
    28  H    1.084323   4.780896   0.000000
    29  H    4.780493   1.084287   4.531110   0.000000
    30  H    9.781012   7.236498  10.487488   8.305221   0.000000
    31  C    8.711398   6.409833   9.438297   7.491292   1.087301
    32  C    7.859364   5.056976   8.476729   6.129675   2.183098
    33  C    8.467050   4.878140   8.936847   5.874258   2.836592
    34  H    9.553859   5.861993  10.018986   6.817537   2.665588
    35  C    7.889051   3.786920   8.212459   4.699235   4.201632
    36  C    6.490365   2.434334   6.785385   3.428960   4.972710
    37  C    6.056706   1.370410   6.129201   2.145473   6.404225
    38  H    6.917760   2.133697   6.867507   2.480267   6.969860
    39  H    8.625357   4.181036   8.843075   4.929176   4.925279
    40  H    5.862237   9.554075   6.817638  10.018842  10.712688
    41  H    7.236940   9.781352   8.305636  10.487532   9.050260
    42  H    4.180826   8.625044   4.928796   8.842404  11.485099
    43  H    2.133420   6.917491   2.479886   6.866909  11.422665
    44  N    4.635790   4.635721   5.426715   5.426438   6.051396
    45  N    5.146897   5.146833   5.869344   5.869091   6.451314
                   31         32         33         34         35
    31  C    0.000000
    32  C    1.433163   0.000000
    33  C    2.564000   1.430419   0.000000
    34  H    2.826029   2.174296   1.086895   0.000000
    35  C    3.801670   2.448288   1.378420   2.138586   0.000000
    36  C    4.292260   2.864040   2.448247   3.431618   1.430465
    37  C    5.715160   4.291884   3.801330   4.695741   2.563773
    38  H    6.404536   4.972658   4.201672   4.925398   2.836673
    39  H    4.696029   3.431650   2.138624   2.461010   1.086881
    40  H    9.721796   9.732474  10.966263  11.895350  11.120065
    41  H    8.186209   8.557806   9.932003  10.712725  10.404640
    42  H   10.419807  10.087742  11.119539  12.146965  10.966152
    43  H   10.336391   9.653422  10.404018  11.485112   9.931801
    44  N    5.039080   4.511962   5.433739   6.394307   5.433943
    45  N    5.512927   5.035649   5.875840   6.774005   5.876027
                   36         37         38         39         40
    36  C    0.000000
    37  C    1.432798   0.000000
    38  H    2.182965   1.087296   0.000000
    39  H    2.174351   2.825968   2.665853   0.000000
    40  H   10.088422  10.420514  11.485746  12.147553   0.000000
    41  H    9.654264  10.337170  11.423451  11.485746   2.665853
    42  H    9.732469   9.721941  10.712727  11.895350   2.461000
    43  H    8.557652   8.186348   9.050270  10.712698   4.925276
    44  N    4.512338   5.039425   6.051764   6.394588   6.394560
    45  N    5.035986   5.513237   6.451656   6.774272   6.774232
                   41         42         43         44         45
    41  H    0.000000
    42  H    4.925389   0.000000
    43  H    6.969860   2.665591   0.000000
    44  N    6.051727   6.394299   6.051390   0.000000
    45  N    6.451605   6.773994   6.451302   1.000000   0.000000
 Stoichiometry    C24H12FeN8
 Framework group  C1[X(C24H12FeN8)]
 Deg. of freedom   129
 Full point group                 C1      NOp   1
 Largest Abelian subgroup         C1      NOp   1
 Largest concise Abelian subgroup C1      NOp   1
                         Standard orientation:                         
 ---------------------------------------------------------------------
 Center     Atomic      Atomic             Coordinates (Angstroms)
 Number     Number       Type             X           Y           Z
 ---------------------------------------------------------------------
      1         26           0       -0.000000    0.000000    0.147088
      2          7           0        1.329699   -1.279571    0.147128
      3          7           0        1.329231    1.279559    0.147098
      4          7           0       -1.329699    1.279571    0.147028
      5          7           0       -1.329231   -1.279559    0.147028
      6          6           0       -1.184311   -2.640079    0.147078
      7          6           0       -1.185959    2.639161    0.147048
      8          7           0       -0.000239    3.276040    0.147058
      9          6           0        1.184311    2.640079    0.147068
     10          6           0       -2.588330    0.705231    0.147018
     11          1           0        2.265878   -4.506891    0.146988
     12          1           0       -2.265242   -4.507549    0.147128
     13          6           0        5.005340   -0.688762    0.147018
     14          6           0        2.392648   -3.430041    0.147018
     15          6           0        3.637599   -2.857222    0.147008
     16          6           0        3.783009   -1.431822    0.147038
     17          6           0        2.588330   -0.705231    0.147108
     18          7           0        0.000238   -3.276040    0.147068
     19          6           0        1.185959   -2.639161    0.147068
     20          6           0       -2.391902   -3.430649    0.147088
     21          6           0       -2.588060   -0.705559    0.147028
     22          6           0        5.004990    0.689658    0.147038
     23          6           0        2.588060    0.705559    0.147098
     24          6           0        3.782411    1.432218    0.147078
     25          6           0        3.636541    2.857938    0.147058
     26          6           0        2.391902    3.430649    0.147058
     27          6           0       -2.392648    3.430041    0.147048
     28          1           0        2.265242    4.507549    0.147038
     29          1           0       -2.265868    4.506891    0.147058
     30          1           0       -4.524612   -3.485278    0.147088
     31          6           0       -3.636541   -2.857938    0.147078
     32          6           0       -3.782411   -1.432218    0.147038
     33          6           0       -5.004990   -0.689658    0.147048
     34          1           0       -5.947391   -1.231157    0.147048
     35          6           0       -5.005340    0.688762    0.147038
     36          6           0       -3.783009    1.431822    0.147038
     37          6           0       -3.637599    2.857222    0.147048
     38          1           0       -4.525648    3.484582    0.147068
     39          1           0       -5.947959    1.229853    0.147058
     40          1           0        5.947959   -1.229853    0.146968
     41          1           0        4.525648   -3.484582    0.146958
     42          1           0        5.947391    1.231147    0.147028
     43          1           0        4.524622    3.485278    0.147048
     44          7           0       -0.000000    0.000000   -1.852942
     45          7           0       -0.000000    0.000000   -2.852942
 ---------------------------------------------------------------------
 Rotational constants (GHZ):           0.2364728           0.1364289           0.0919145
 Standard basis: 6-31G(d) (6D, 7F)
 There are   543 symmetry adapted cartesian basis functions of A   symmetry.
 There are   540 symmetry adapted basis functions of A   symmetry.
   540 basis functions,  1048 primitive gaussians,   543 cartesian basis functions
   119 alpha electrons      119 beta electrons
       nuclear repulsion energy      3900.4349242391 Hartrees.
 NAtoms=   45 NActive=   45 NUniq=   45 SFac= 1.00D+00 NAtFMM=   60 NAOKFM=F Big=F
 Integral buffers will be    131072 words long.
 Raffenetti 2 integral format.
 Two-electron integral symmetry is turned on.
 One-electron integrals computed using PRISM.
 PrsmSu:  requested number of processors reduced to:  12 ShMem   1 Linda.
 NBasis=   540 RedAO= T EigKep=  2.41D-04  NBF=   540
 NBsUse=   540 1.00D-06 EigRej= -1.00D+00 NBFU=   540
 ExpMin= 4.11D-02 ExpMax= 6.11D+04 ExpMxC= 9.18D+03 IAcc=3 IRadAn=         5 AccDes= 0.00D+00
 Harris functional with IExCor=  402 and IRadAn=       5 diagonalized for initial guess.
 HarFok:  IExCor=  402 AccDes= 0.00D+00 IRadAn=         5 IDoV= 1 UseB2=F ITyADJ=14
 ICtDFT=  3500011 ScaDFX=  1.000000  1.000000  1.000000  1.000000
 FoFCou: FMM=F IPFlag=           0 FMFlag=      100000 FMFlg1=           0
         NFxFlg=           0 DoJE=T BraDBF=F KetDBF=T FulRan=T
         wScrn=  0.000000 ICntrl=       500 IOpCl=  0 I1Cent=   200000004 NGrid=           0
         NMat0=    1 NMatS0=      1 NMatT0=    0 NMatD0=    1 NMtDS0=    0 NMtDT0=    0
 Petite list used in FoFCou.
 Requested convergence on RMS density matrix=1.00D-08 within  32 cycles.
 Requested convergence on MAX density matrix=1.00D-06.
 Requested convergence on             energy=1.00D-06.
 No special actions if energy rises.
 EnCoef did     2 forward-backward iterations
 EnCoef did     1 forward-backward iterations
 SCF Done:  E(RB3LYP) =  -2623.54138601     A.U. after   19 cycles
            NFock= 19  Conv=0.41D-08     -V/T= 2.0053
 QCSCF skips out because SCF is already converged.

 **********************************************************************

            Population analysis using the SCF Density.

 **********************************************************************

 Orbital symmetries:
       Occupied  (A) (A) (A) (A) (A) (A) (A) (A) (A) (A) (A) (A)
                 (A) (A) (A) (A) (A) (A) (A) (A) (A) (A) (A) (A)
                 (A) (A) (A) (A) (A) (A) (A) (A) (A) (A) (A) (A)
                 (A) (A) (A) (A) (A) (A) (A) (A) (A) (A) (A) (A)
                 (A) (A) (A) (A) (A) (A) (A) (A) (A) (A) (A) (A)
                 (A) (A) (A) (A) (A) (A) (A) (A) (A) (A) (A) (A)
                 (A) (A) (A) (A) (A) (A) (A) (A) (A) (A) (A) (A)
                 (A) (A) (A) (A) (A) (A) (A) (A) (A) (A) (A) (A)
                 (A) (A) (A) (A) (A) (A) (A) (A) (A) (A) (A) (A)
                 (A) (A) (A) (A) (A) (A) (A) (A) (A) (A) (A)
       Virtual   (A) (A) (A) (A) (A) (A) (A) (A) (A) (A) (A) (A)
                 (A) (A) (A) (A) (A) (A) (A) (A) (A) (A) (A) (A)
                 (A) (A) (A) (A) (A) (A) (A) (A) (A) (A) (A) (A)
                 (A) (A) (A) (A) (A) (A) (A) (A) (A) (A) (A) (A)
                 (A) (A) (A) (A) (A) (A) (A) (A) (A) (A) (A) (A)
                 (A) (A) (A) (A) (A) (A) (A) (A) (A) (A) (A) (A)
                 (A) (A) (A) (A) (A) (A) (A) (A) (A) (A) (A) (A)
                 (A) (A) (A) (A) (A) (A) (A) (A) (A) (A) (A) (A)
                 (A) (A) (A) (A) (A) (A) (A) (A) (A) (A) (A) (A)
                 (A) (A) (A) (A) (A) (A) (A) (A) (A) (A) (A) (A)
                 (A) (A) (A) (A) (A) (A) (A) (A) (A) (A) (A) (A)
                 (A) (A) (A) (A) (A) (A) (A) (A) (A) (A) (A) (A)
                 (A) (A) (A) (A) (A) (A) (A) (A) (A) (A) (A) (A)
                 (A) (A) (A) (A) (A) (A) (A) (A) (A) (A) (A) (A)
                 (A) (A) (A) (A) (A) (A) (A) (A) (A) (A) (A) (A)
                 (A) (A) (A) (A) (A) (A) (A) (A) (A) (A) (A) (A)
                 (A) (A) (A) (A) (A) (A) (A) (A) (A) (A) (A) (A)
                 (A) (A) (A) (A) (A) (A) (A) (A) (A) (A) (A) (A)
                 (A) (A) (A) (A) (A) (A) (A) (A) (A) (A) (A) (A)
                 (A) (A) (A) (A) (A) (A) (A) (A) (A) (A) (A) (A)
                 (A) (A) (A) (A) (A) (A) (A) (A) (A) (A) (A) (A)
                 (A) (A) (A) (A) (A) (A) (A) (A) (A) (A) (A) (A)
                 (A) (A) (A) (A) (A) (A) (A) (A) (A) (A) (A) (A)
                 (A) (A) (A) (A) (A) (A) (A) (A) (A) (A) (A) (A)
                 (A) (A) (A) (A) (A) (A) (A) (A) (A) (A) (A) (A)
                 (A) (A) (A) (A) (A) (A) (A) (A) (A) (A) (A) (A)
                 (A) (A) (A) (A) (A) (A) (A) (A) (A) (A) (A) (A)
                 (A) (A) (A) (A) (A) (A) (A) (A) (A) (A) (A) (A)
                 (A) (A) (A) (A) (A) (A) (A) (A) (A) (A) (A) (A)
                 (A) (A) (A) (A) (A) (A) (A) (A) (A) (A) (A) (A)
                 (A) (A) (A) (A) (A) (A) (A) (A) (A) (A) (A) (A)
                 (A) (A) (A) (A) (A) (A) (A) (A) (A) (A) (A) (A)
                 (A) (A) (A) (A) (A) (A) (A) (A) (A) (A) (A) (A)
                 (A) (A) (A) (A) (A) (A) (A) (A) (A) (A) (A) (A)
                 (A) (A) (A) (A) (A) (A) (A) (A) (A) (A) (A) (A)
                 (A)
 The electronic state is 1-A.
 Alpha  occ. eigenvalues -- -256.05824 -30.02874 -25.89663 -25.88958 -25.88916
 Alpha  occ. eigenvalues --  -14.46190 -14.44447 -14.35127 -14.35127 -14.35107
 Alpha  occ. eigenvalues --  -14.35107 -14.30018 -14.30018 -10.25767 -10.25767
 Alpha  occ. eigenvalues --  -10.25760 -10.25760 -10.22523 -10.22523 -10.22474
 Alpha  occ. eigenvalues --  -10.22474 -10.20796 -10.20796 -10.20785 -10.20785
 Alpha  occ. eigenvalues --  -10.20630 -10.20630 -10.20621 -10.20621 -10.19977
 Alpha  occ. eigenvalues --  -10.19977 -10.19914 -10.19914 -10.19690 -10.19690
 Alpha  occ. eigenvalues --  -10.19682 -10.19682  -3.42019  -2.20179  -2.18732
 Alpha  occ. eigenvalues --   -2.18553  -1.21627  -0.98511  -0.96639  -0.96174
 Alpha  occ. eigenvalues --   -0.93056  -0.90110  -0.86477  -0.84880  -0.84313
 Alpha  occ. eigenvalues --   -0.80658  -0.80631  -0.80545  -0.78570  -0.75537
 Alpha  occ. eigenvalues --   -0.74558  -0.73101  -0.72532  -0.66922  -0.65872
 Alpha  occ. eigenvalues --   -0.65358  -0.63936  -0.62577  -0.61706  -0.60412
 Alpha  occ. eigenvalues --   -0.60187  -0.59157  -0.55610  -0.55227  -0.54754
 Alpha  occ. eigenvalues --   -0.53821  -0.53147  -0.53095  -0.51750  -0.51333
 Alpha  occ. eigenvalues --   -0.50157  -0.48504  -0.48062  -0.47708  -0.46466
 Alpha  occ. eigenvalues --   -0.46386  -0.44569  -0.44369  -0.44132  -0.43953
 Alpha  occ. eigenvalues --   -0.43627  -0.43128  -0.43121  -0.42465  -0.42197
 Alpha  occ. eigenvalues --   -0.41654  -0.41117  -0.40723  -0.39216  -0.38554
 Alpha  occ. eigenvalues --   -0.37567  -0.37432  -0.37235  -0.36487  -0.34563
 Alpha  occ. eigenvalues --   -0.34370  -0.33154  -0.32236  -0.32076  -0.31867
 Alpha  occ. eigenvalues --   -0.30399  -0.29977  -0.29842  -0.29655  -0.26594
 Alpha  occ. eigenvalues --   -0.25728  -0.25530  -0.24586  -0.24125  -0.21496
 Alpha  occ. eigenvalues --   -0.21216  -0.20580  -0.18925  -0.18523
 Alpha virt. eigenvalues --   -0.06755  -0.06498  -0.05060  -0.04777  -0.01215
 Alpha virt. eigenvalues --   -0.01043   0.00446   0.00752   0.02157   0.02251
 Alpha virt. eigenvalues --    0.04279   0.05291   0.05858   0.05938   0.07808
 Alpha virt. eigenvalues --    0.08302   0.08360   0.10030   0.10303   0.11235
 Alpha virt. eigenvalues --    0.11576   0.12205   0.12613   0.12960   0.12975
 Alpha virt. eigenvalues --    0.15450   0.16030   0.16117   0.17368   0.17682
 Alpha virt. eigenvalues --    0.18668   0.18942   0.21133   0.21390   0.22012
 Alpha virt. eigenvalues --    0.22102   0.23033   0.24029   0.24241   0.24639
 Alpha virt. eigenvalues --    0.26065   0.27021   0.27081   0.28842   0.28844
 Alpha virt. eigenvalues --    0.29274   0.29619   0.31362   0.31672   0.31878
 Alpha virt. eigenvalues --    0.32422   0.33125   0.34659   0.35469   0.35551
 Alpha virt. eigenvalues --    0.38693   0.40960   0.42549   0.42843   0.43431
 Alpha virt. eigenvalues --    0.43812   0.45188   0.45293   0.46036   0.47311
 Alpha virt. eigenvalues --    0.47381   0.48316   0.48674   0.49314   0.49499
 Alpha virt. eigenvalues --    0.50942   0.52024   0.52359   0.52430   0.52819
 Alpha virt. eigenvalues --    0.53672   0.53910   0.54039   0.54625   0.55538
 Alpha virt. eigenvalues --    0.55851   0.56152   0.56173   0.56260   0.57353
 Alpha virt. eigenvalues --    0.57948   0.57978   0.58163   0.58740   0.58870
 Alpha virt. eigenvalues --    0.59253   0.59842   0.60206   0.60270   0.60309
 Alpha virt. eigenvalues --    0.60867   0.61130   0.61169   0.61375   0.62098
 Alpha virt. eigenvalues --    0.62191   0.62591   0.64427   0.65135   0.65494
 Alpha virt. eigenvalues --    0.65496   0.66100   0.66157   0.66456   0.66894
 Alpha virt. eigenvalues --    0.67121   0.68096   0.68422   0.71079   0.71389
 Alpha virt. eigenvalues --    0.73142   0.73821   0.73975   0.74865   0.76346
 Alpha virt. eigenvalues --    0.77738   0.78401   0.78696   0.80129   0.80413
 Alpha virt. eigenvalues --    0.81032   0.81571   0.82089   0.82256   0.83620
 Alpha virt. eigenvalues --    0.84100   0.84213   0.84386   0.84512   0.85688
 Alpha virt. eigenvalues --    0.85890   0.86145   0.86379   0.86473   0.86851
 Alpha virt. eigenvalues --    0.88222   0.88535   0.88968   0.89716   0.90047
 Alpha virt. eigenvalues --    0.91872   0.92329   0.92987   0.93953   0.94644
 Alpha virt. eigenvalues --    0.95383   0.95468   0.96386   0.96612   0.97085
 Alpha virt. eigenvalues --    0.97145   0.98072   0.98246   0.98917   0.99770
 Alpha virt. eigenvalues --    0.99981   1.00354   1.02396   1.02766   1.03451
 Alpha virt. eigenvalues --    1.06242   1.07268   1.08826   1.09378   1.09514
 Alpha virt. eigenvalues --    1.11136   1.12224   1.12856   1.13634   1.14069
 Alpha virt. eigenvalues --    1.17834   1.19106   1.20086   1.21430   1.21584
 Alpha virt. eigenvalues --    1.22274   1.22805   1.23310   1.23541   1.24659
 Alpha virt. eigenvalues --    1.24923   1.25511   1.25872   1.27403   1.28739
 Alpha virt. eigenvalues --    1.29081   1.29466   1.30626   1.31702   1.33695
 Alpha virt. eigenvalues --    1.34212   1.36520   1.36812   1.38595   1.38940
 Alpha virt. eigenvalues --    1.38953   1.38988   1.40139   1.40274   1.40359
 Alpha virt. eigenvalues --    1.40754   1.42878   1.44559   1.44902   1.44938
 Alpha virt. eigenvalues --    1.45216   1.45814   1.46017   1.47385   1.47597
 Alpha virt. eigenvalues --    1.47632   1.47688   1.48069   1.48413   1.49191
 Alpha virt. eigenvalues --    1.49320   1.52386   1.52956   1.55536   1.56079
 Alpha virt. eigenvalues --    1.57772   1.59195   1.61647   1.62110   1.62652
 Alpha virt. eigenvalues --    1.63724   1.64131   1.64169   1.67506   1.68597
 Alpha virt. eigenvalues --    1.71360   1.72843   1.73225   1.75753   1.76316
 Alpha virt. eigenvalues --    1.76662   1.77035   1.78698   1.78786   1.79112
 Alpha virt. eigenvalues --    1.81421   1.81437   1.81469   1.82056   1.82077
 Alpha virt. eigenvalues --    1.82532   1.83249   1.84943   1.85902   1.87640
 Alpha virt. eigenvalues --    1.88255   1.89003   1.89549   1.89809   1.91049
 Alpha virt. eigenvalues --    1.92213   1.92378   1.93220   1.93406   1.93532
 Alpha virt. eigenvalues --    1.95312   1.95493   1.95808   1.96255   1.97181
 Alpha virt. eigenvalues --    1.97427   1.97773   1.97933   1.98328   1.99820
 Alpha virt. eigenvalues --    2.01074   2.02464   2.03025   2.03577   2.03598
 Alpha virt. eigenvalues --    2.04222   2.04826   2.05257   2.05869   2.07601
 Alpha virt. eigenvalues --    2.08941   2.10494   2.15629   2.15652   2.16619
 Alpha virt. eigenvalues --    2.17112   2.18405   2.20005   2.20726   2.21164
 Alpha virt. eigenvalues --    2.21413   2.22211   2.24822   2.25567   2.26309
 Alpha virt. eigenvalues --    2.27379   2.27726   2.27847   2.27934   2.28756
 Alpha virt. eigenvalues --    2.28952   2.30311   2.30476   2.30918   2.32407
 Alpha virt. eigenvalues --    2.32471   2.33929   2.34592   2.34699   2.35497
 Alpha virt. eigenvalues --    2.36695   2.37510   2.37946   2.39342   2.39941
 Alpha virt. eigenvalues --    2.40759   2.41040   2.45370   2.47678   2.48018
 Alpha virt. eigenvalues --    2.49643   2.51399   2.52394   2.52686   2.52981
 Alpha virt. eigenvalues --    2.53457   2.54764   2.59607   2.60165   2.61575
 Alpha virt. eigenvalues --    2.63684   2.63899   2.64439   2.65520   2.65961
 Alpha virt. eigenvalues --    2.67351   2.67705   2.67730   2.69479   2.70471
 Alpha virt. eigenvalues --    2.70832   2.70966   2.71611   2.73438   2.76179
 Alpha virt. eigenvalues --    2.77034   2.77195   2.77713   2.79099   2.80707
 Alpha virt. eigenvalues --    2.80772   2.82096   2.82455   2.83311   2.83950
 Alpha virt. eigenvalues --    2.85043   2.85410   2.87017   2.89290   2.89377
 Alpha virt. eigenvalues --    2.92894   2.94705   2.94958   2.97059   2.99303
 Alpha virt. eigenvalues --    3.00782   3.01594   3.08040   3.08052   3.12053
 Alpha virt. eigenvalues --    3.12451   3.14007   3.17998   3.20482   3.29503
 Alpha virt. eigenvalues --    3.32251   3.33577   3.41950   3.44559   3.46767
 Alpha virt. eigenvalues --    3.47611   3.57736   3.59203   3.62603   3.91953
 Alpha virt. eigenvalues --    4.07434   4.08036   4.09787   4.09995   4.11985
 Alpha virt. eigenvalues --    4.12047   4.15875   4.15931   4.17054   4.17333
 Alpha virt. eigenvalues --    4.25833   4.27711   4.29412   4.29833   4.32060
 Alpha virt. eigenvalues --    4.32811   4.35665   4.35694   4.43282   4.44013
 Alpha virt. eigenvalues --    4.46419   4.47722   4.50315   4.52744   4.60145
 Alpha virt. eigenvalues --    4.61685   4.71455   4.73745   4.89984   4.90621
 Alpha virt. eigenvalues --   20.75557
          Condensed to atoms (all electrons):
               1          2          3          4          5          6
     1  Fe  24.332486   0.178341   0.178424   0.178341   0.178419  -0.034972
     2  N    0.178341   7.482552  -0.016119  -0.005957   0.000271  -0.013602
     3  N    0.178424  -0.016119   7.483949   0.000271  -0.005975   0.000099
     4  N    0.178341  -0.005957   0.000271   7.482558  -0.016119   0.001571
     5  N    0.178419   0.000271  -0.005975  -0.016119   7.483955   0.291595
     6  C   -0.034972  -0.013602   0.000099   0.001571   0.291595   4.503873
     7  C   -0.034999   0.000099  -0.013672   0.292182   0.001575   0.000044
     8  N   -0.000581   0.000013  -0.079421  -0.079390   0.000013  -0.000000
     9  C   -0.034972   0.001571   0.291595  -0.013602   0.000099   0.000001
    10  C   -0.038244   0.000951  -0.000260   0.178165  -0.063562   0.002037
    11  H    0.000403   0.005923   0.000000   0.000000   0.000010   0.000034
    12  H    0.000403   0.000010   0.000000   0.000000   0.005927  -0.026717
    13  C    0.000230   0.008915  -0.000523   0.000000   0.000000  -0.000000
    14  C   -0.000933  -0.063556  -0.000043  -0.000000   0.000599   0.004893
    15  C   -0.001138  -0.041787  -0.000176  -0.000000   0.000014  -0.000111
    16  C    0.000770  -0.066281   0.010591   0.000005  -0.000081   0.000013
    17  C   -0.038241   0.178167  -0.063562   0.000951  -0.000261   0.000879
    18  N   -0.000581  -0.079389   0.000013   0.000013  -0.079422   0.406939
    19  C   -0.034998   0.292183   0.001575   0.000099  -0.013671  -0.034573
    20  C   -0.000921   0.000599  -0.000000  -0.000043  -0.063492   0.449316
    21  C   -0.038252  -0.000262   0.000953  -0.063488   0.178132  -0.034606
    22  C    0.000230  -0.000523   0.008918   0.000000   0.000000   0.000000
    23  C   -0.038251  -0.063487   0.178132  -0.000262   0.000953  -0.000113
    24  C    0.000761   0.010607  -0.066239  -0.000081   0.000005  -0.000000
    25  C   -0.001137  -0.000176  -0.041823   0.000014  -0.000000   0.000000
    26  C   -0.000922  -0.000043  -0.063492   0.000599  -0.000000  -0.000000
    27  C   -0.000931  -0.000000   0.000599  -0.063555  -0.000043  -0.000002
    28  H    0.000403   0.000000   0.005927   0.000010   0.000000   0.000000
    29  H    0.000403   0.000000   0.000010   0.005923   0.000000  -0.000000
    30  H    0.000168   0.000000  -0.000000   0.000001  -0.000108   0.003573
    31  C   -0.001138   0.000014  -0.000000  -0.000176  -0.041823  -0.020925
    32  C    0.000764  -0.000081   0.000005   0.010607  -0.066238  -0.012658
    33  C    0.000229   0.000000   0.000000  -0.000523   0.008918   0.000106
    34  H    0.000069  -0.000000  -0.000000   0.000005  -0.000101  -0.000002
    35  C    0.000231   0.000000   0.000000   0.008915  -0.000523  -0.000010
    36  C    0.000769   0.000005  -0.000081  -0.066279   0.010591   0.000084
    37  C   -0.001139  -0.000000   0.000014  -0.041788  -0.000176   0.000004
    38  H    0.000168  -0.000000   0.000000  -0.000107   0.000001  -0.000000
    39  H    0.000070  -0.000000  -0.000000  -0.000101   0.000005  -0.000000
    40  H    0.000070  -0.000101   0.000005  -0.000000  -0.000000   0.000000
    41  H    0.000169  -0.000107   0.000001  -0.000000   0.000000   0.000002
    42  H    0.000070   0.000005  -0.000101  -0.000000  -0.000000  -0.000000
    43  H    0.000168   0.000001  -0.000108   0.000000  -0.000000   0.000000
    44  N    0.113931  -0.007947  -0.007953  -0.007950  -0.007954   0.000058
    45  N   -0.004473   0.000192   0.000196   0.000192   0.000197   0.000329
               7          8          9         10         11         12
     1  Fe  -0.034999  -0.000581  -0.034972  -0.038244   0.000403   0.000403
     2  N    0.000099   0.000013   0.001571   0.000951   0.005923   0.000010
     3  N   -0.013672  -0.079421   0.291595  -0.000260   0.000000   0.000000
     4  N    0.292182  -0.079390  -0.013602   0.178165   0.000000   0.000000
     5  N    0.001575   0.000013   0.000099  -0.063562   0.000010   0.005927
     6  C    0.000044  -0.000000   0.000001   0.002037   0.000034  -0.026717
     7  C    4.504305   0.406036  -0.034573  -0.034707   0.000000  -0.000000
     8  N    0.406036   7.070512   0.406938   0.002784  -0.000000  -0.000000
     9  C   -0.034573   0.406938   4.503874   0.000879  -0.000000   0.000000
    10  C   -0.034707   0.002784   0.000879   5.098935   0.000000   0.000024
    11  H    0.000000  -0.000000  -0.000000   0.000000   0.564472   0.000032
    12  H   -0.000000  -0.000000   0.000000   0.000024   0.000032   0.564732
    13  C    0.000000  -0.000000  -0.000010  -0.000000  -0.000135   0.000000
    14  C   -0.000000  -0.000000  -0.000002  -0.000001   0.346899  -0.000014
    15  C    0.000000   0.000000   0.000004   0.000000  -0.040188   0.000000
    16  C   -0.000000   0.000000   0.000084  -0.000000   0.002855   0.000000
    17  C   -0.000113  -0.000437   0.002036  -0.000071   0.000541  -0.000001
    18  N   -0.000000   0.000000  -0.000000  -0.000437   0.002289   0.002284
    19  C    0.000001  -0.000000   0.000044  -0.000113  -0.026688   0.000030
    20  C   -0.000002  -0.000000  -0.000000   0.000135  -0.000014   0.346850
    21  C    0.002043  -0.000437  -0.000113   0.318460  -0.000001   0.000539
    22  C   -0.000000   0.000008   0.000106   0.000000   0.000002  -0.000000
    23  C    0.000881   0.002787  -0.034607   0.000116   0.000024   0.000000
    24  C    0.000013   0.001219  -0.012657   0.000000  -0.000000   0.000000
    25  C   -0.000112   0.003626  -0.020926  -0.000000  -0.000000   0.000000
    26  C    0.004900  -0.068649   0.449318   0.000016   0.000000   0.000000
    27  C    0.449746  -0.068570   0.004893  -0.026952   0.000000   0.000000
    28  H    0.000030   0.002284  -0.026717  -0.000001   0.000000  -0.000000
    29  H   -0.026687   0.002290   0.000034   0.000541  -0.000000   0.000000
    30  H   -0.000000   0.000000   0.000000  -0.000193  -0.000000  -0.005837
    31  C    0.000004   0.000000   0.000000   0.013289   0.000000  -0.040213
    32  C    0.000085   0.000000  -0.000000  -0.040523   0.000000   0.002863
    33  C   -0.000010  -0.000000   0.000000  -0.070258   0.000000  -0.000135
    34  H   -0.000000   0.000000  -0.000000   0.000898   0.000000  -0.000006
    35  C    0.000106   0.000008  -0.000000  -0.005545  -0.000000   0.000002
    36  C   -0.012700   0.001219   0.000013   0.436017   0.000000  -0.000000
    37  C   -0.020915   0.003624  -0.000111  -0.029684   0.000000  -0.000000
    38  H    0.003573  -0.000093   0.000002   0.004892   0.000000  -0.000000
    39  H   -0.000002  -0.000000   0.000000   0.004698   0.000000  -0.000000
    40  H   -0.000000   0.000000  -0.000000   0.000000  -0.000006   0.000000
    41  H    0.000000   0.000000  -0.000000   0.000000  -0.005819  -0.000000
    42  H    0.000000  -0.000000  -0.000002   0.000000  -0.000000   0.000000
    43  H    0.000002  -0.000093   0.003573   0.000000  -0.000000   0.000000
    44  N    0.000055   0.000174   0.000058  -0.001636  -0.000001  -0.000001
    45  N    0.000330  -0.000082   0.000329   0.000334   0.000000   0.000000
              13         14         15         16         17         18
     1  Fe   0.000230  -0.000933  -0.001138   0.000770  -0.038241  -0.000581
     2  N    0.008915  -0.063556  -0.041787  -0.066281   0.178167  -0.079389
     3  N   -0.000523  -0.000043  -0.000176   0.010591  -0.063562   0.000013
     4  N    0.000000  -0.000000  -0.000000   0.000005   0.000951   0.000013
     5  N    0.000000   0.000599   0.000014  -0.000081  -0.000261  -0.079422
     6  C   -0.000000   0.004893  -0.000111   0.000013   0.000879   0.406939
     7  C    0.000000  -0.000000   0.000000  -0.000000  -0.000113  -0.000000
     8  N   -0.000000  -0.000000   0.000000   0.000000  -0.000437   0.000000
     9  C   -0.000010  -0.000002   0.000004   0.000084   0.002036  -0.000000
    10  C   -0.000000  -0.000001   0.000000  -0.000000  -0.000071  -0.000437
    11  H   -0.000135   0.346899  -0.040188   0.002855   0.000541   0.002289
    12  H    0.000000  -0.000014   0.000000   0.000000  -0.000001   0.002284
    13  C    5.135530   0.006904  -0.087180   0.434241  -0.005545   0.000008
    14  C    0.006904   5.078626   0.493865  -0.005608  -0.026952  -0.068570
    15  C   -0.087180   0.493865   5.114244   0.410001  -0.029685   0.003624
    16  C    0.434241  -0.005608   0.410001   4.752466   0.436016   0.001219
    17  C   -0.005545  -0.026952  -0.029685   0.436016   5.098933   0.002784
    18  N    0.000008  -0.068570   0.003624   0.001219   0.002784   7.070512
    19  C    0.000106   0.449747  -0.020916  -0.012700  -0.034709   0.406035
    20  C   -0.000000  -0.000477   0.000003   0.000000   0.000016  -0.068649
    21  C    0.000000   0.000016  -0.000000   0.000000   0.000116   0.002787
    22  C    0.467026  -0.000259   0.007740   0.003753  -0.070258  -0.000000
    23  C   -0.070243   0.000135   0.013293  -0.040581   0.318458  -0.000437
    24  C    0.003753  -0.000033   0.000125  -0.032615  -0.040522   0.000000
    25  C    0.007732  -0.000000  -0.000004   0.000127   0.013289   0.000000
    26  C   -0.000258   0.000000  -0.000000  -0.000033   0.000135  -0.000000
    27  C    0.000000   0.000000  -0.000000  -0.000000  -0.000001  -0.000000
    28  H    0.000002   0.000000  -0.000000  -0.000000   0.000024  -0.000000
    29  H   -0.000000   0.000000   0.000000   0.000000   0.000000  -0.000000
    30  H   -0.000000  -0.000000   0.000000  -0.000000   0.000000  -0.000093
    31  C    0.000000   0.000003   0.000000  -0.000000  -0.000000   0.003626
    32  C   -0.000000   0.000000  -0.000000   0.000000   0.000000   0.001219
    33  C    0.000000  -0.000000   0.000000  -0.000000   0.000000   0.000008
    34  H    0.000000  -0.000000   0.000000  -0.000000   0.000000  -0.000000
    35  C   -0.000000   0.000000   0.000000  -0.000000  -0.000000  -0.000000
    36  C   -0.000000  -0.000000  -0.000000   0.000000  -0.000000   0.000000
    37  C    0.000000  -0.000000  -0.000000  -0.000000   0.000000   0.000000
    38  H    0.000000  -0.000000  -0.000000   0.000000   0.000000   0.000000
    39  H    0.000000  -0.000000  -0.000000   0.000000   0.000000   0.000000
    40  H    0.352926   0.000036  -0.007066  -0.037162   0.004698  -0.000000
    41  H   -0.006443  -0.041162   0.354902  -0.039720   0.004892  -0.000093
    42  H   -0.039086   0.000002  -0.000162   0.002503   0.000898   0.000000
    43  H    0.000072  -0.000000  -0.000000   0.000009  -0.000193   0.000000
    44  N   -0.000001  -0.000079   0.000030  -0.000124  -0.001637   0.000174
    45  N    0.000000  -0.000004  -0.000002  -0.000013   0.000334  -0.000082
              19         20         21         22         23         24
     1  Fe  -0.034998  -0.000921  -0.038252   0.000230  -0.038251   0.000761
[...]
   341. RY*(   6) C  23                  0.00063     1.86071   
   342. RY*(   7) C  23                  0.00039     2.36824   
   343. RY*(   8) C  23                  0.00015     2.55711   
   344. RY*(   9) C  23                  0.00009     3.74752   
   345. RY*(  10) C  23                  0.00002     2.47818   
   346. RY*(   1) C  24                  0.00563     1.26975   
   347. RY*(   2) C  24                  0.00414     1.39236   
   348. RY*(   3) C  24                  0.00073     1.77068   
   349. RY*(   4) C  24                  0.00054     1.56075   
   350. RY*(   5) C  24                  0.00047     1.19147   
   351. RY*(   6) C  24                  0.00044     1.18610   
   352. RY*(   7) C  24                  0.00012     2.67719   
   353. RY*(   8) C  24                  0.00007     3.61460   
   354. RY*(   9) C  24                  0.00007     2.38635   
   355. RY*(  10) C  24                  0.00002     2.62477   
   356. RY*(   1) C  25                  0.00475     1.29973   
   357. RY*(   2) C  25                  0.00273     0.72922   
   358. RY*(   3) C  25                  0.00088     1.36885   
   359. RY*(   4) C  25                  0.00031     1.17761   
   360. RY*(   5) C  25                  0.00027     1.20791   
   361. RY*(   6) C  25                  0.00009     2.54903   
   362. RY*(   7) C  25                  0.00004     3.54966   
   363. RY*(   8) C  25                  0.00002     1.79032   
   364. RY*(   9) C  25                  0.00002     2.42555   
   365. RY*(  10) C  25                  0.00002     2.42467   
   366. RY*(   1) C  26                  0.00446     1.31011   
   367. RY*(   2) C  26                  0.00299     0.75412   
   368. RY*(   3) C  26                  0.00071     0.87693   
   369. RY*(   4) C  26                  0.00060     1.08008   
   370. RY*(   5) C  26                  0.00035     1.71732   
   371. RY*(   6) C  26                  0.00010     2.32760   
   372. RY*(   7) C  26                  0.00003     4.18324   
   373. RY*(   8) C  26                  0.00003     1.78763   
   374. RY*(   9) C  26                  0.00004     2.22660   
   375. RY*(  10) C  26                  0.00002     2.38181   
   376. RY*(   1) C  27                  0.00446     1.31011   
   377. RY*(   2) C  27                  0.00299     0.75412   
   378. RY*(   3) C  27                  0.00071     0.87695   
   379. RY*(   4) C  27                  0.00060     1.08008   
   380. RY*(   5) C  27                  0.00035     1.71731   
   381. RY*(   6) C  27                  0.00010     2.32760   
   382. RY*(   7) C  27                  0.00003     4.18324   
   383. RY*(   8) C  27                  0.00003     1.78763   
   384. RY*(   9) C  27                  0.00004     2.22660   
   385. RY*(  10) C  27                  0.00002     2.38181   
   386. RY*(   1) H  28                  0.00111     0.57031   
   387. RY*(   1) H  29                  0.00111     0.57031   
   388. RY*(   1) H  30                  0.00095     0.55633   
   389. RY*(   1) C  31                  0.00475     1.29973   
   390. RY*(   2) C  31                  0.00273     0.72922   
   391. RY*(   3) C  31                  0.00088     1.36884   
   392. RY*(   4) C  31                  0.00031     1.17762   
   393. RY*(   5) C  31                  0.00027     1.20791   
   394. RY*(   6) C  31                  0.00009     2.54903   
   395. RY*(   7) C  31                  0.00004     3.54966   
   396. RY*(   8) C  31                  0.00002     1.79033   
   397. RY*(   9) C  31                  0.00002     2.42554   
   398. RY*(  10) C  31                  0.00002     2.42466   
   399. RY*(   1) C  32                  0.00563     1.26975   
   400. RY*(   2) C  32                  0.00414     1.39234   
   401. RY*(   3) C  32                  0.00087     1.90423   
   402. RY*(   4) C  32                  0.00055     1.03943   
   403. RY*(   5) C  32                  0.00044     1.16969   
   404. RY*(   6) C  32                  0.00040     1.59571   
   405. RY*(   7) C  32                  0.00012     2.67717   
   406. RY*(   8) C  32                  0.00007     3.61547   
   407. RY*(   9) C  32                  0.00007     2.38558   
   408. RY*(  10) C  32                  0.00002     2.62473   
   409. RY*(   1) C  33                  0.00462     1.30149   
   410. RY*(   2) C  33                  0.00265     0.73082   
   411. RY*(   3) C  33                  0.00097     1.23938   
   412. RY*(   4) C  33                  0.00049     1.36322   
   413. RY*(   5) C  33                  0.00027     1.32658   
   414. RY*(   6) C  33                  0.00008     2.39480   
   415. RY*(   7) C  33                  0.00003     3.40198   
   416. RY*(   8) C  33                  0.00002     2.22366   
   417. RY*(   9) C  33                  0.00002     1.79645   
   418. RY*(  10) C  33                  0.00001     2.79564   
   419. RY*(   1) H  34                  0.00093     0.56032   
   420. RY*(   1) C  35                  0.00462     1.30148   
   421. RY*(   2) C  35                  0.00265     0.73075   
   422. RY*(   3) C  35                  0.00077     1.02028   
   423. RY*(   4) C  35                  0.00047     1.58384   
   424. RY*(   5) C  35                  0.00027     1.32662   
   425. RY*(   6) C  35                  0.00008     2.39481   
   426. RY*(   7) C  35                  0.00003     3.40194   
   427. RY*(   8) C  35                  0.00002     2.22358   
   428. RY*(   9) C  35                  0.00002     1.79458   
   429. RY*(  10) C  35                  0.00001     2.79718   
   430. RY*(   1) C  36                  0.00563     1.26975   
   431. RY*(   2) C  36                  0.00414     1.39236   
   432. RY*(   3) C  36                  0.00073     1.77069   
   433. RY*(   4) C  36                  0.00054     1.56077   
   434. RY*(   5) C  36                  0.00047     1.19144   
   435. RY*(   6) C  36                  0.00044     1.18610   
   436. RY*(   7) C  36                  0.00012     2.67720   
   437. RY*(   8) C  36                  0.00007     3.61457   
   438. RY*(   9) C  36                  0.00007     2.38635   
   439. RY*(  10) C  36                  0.00002     2.62478   
   440. RY*(   1) C  37                  0.00475     1.29973   
   441. RY*(   2) C  37                  0.00273     0.72922   
   442. RY*(   3) C  37                  0.00088     1.36884   
   443. RY*(   4) C  37                  0.00031     1.17762   
   444. RY*(   5) C  37                  0.00027     1.20791   
   445. RY*(   6) C  37                  0.00009     2.54903   
   446. RY*(   7) C  37                  0.00004     3.54967   
   447. RY*(   8) C  37                  0.00002     1.79033   
   448. RY*(   9) C  37                  0.00002     2.42554   
   449. RY*(  10) C  37                  0.00002     2.42466   
   450. RY*(   1) H  38                  0.00095     0.55633   
   451. RY*(   1) H  39                  0.00093     0.56032   
   452. RY*(   1) H  40                  0.00093     0.56032   
   453. RY*(   1) H  41                  0.00095     0.55633   
   454. RY*(   1) H  42                  0.00093     0.56032   
   455. RY*(   1) H  43                  0.00095     0.55633   
   476. BD*(   1) N   2 - C  17          0.02836     0.49623   
   477. BD*(   1) N   2 - C  19          0.04971     0.50406   
   478. BD*(   2) N   2 - C  19          0.55445    -0.01409  480(r),488(v),505(v),510(v)
                                                    298(g),113(r),145(g),248(v)
                                                    287(v),300(g),539(r),538(r)
                                                    111(r),110(r),112(r)
   479. BD*(   1) N   3 - C   9          0.04971     0.50406   
   480. BD*(   2) N   3 - C   9          0.55445    -0.01409  478(r),491(v),522(v),519(v)
                                                    216(g),113(r),155(g),368(v)
                                                    205(v),218(g),539(r),538(r)
                                                    111(r),110(r),112(r)
   481. BD*(   1) N   3 - C  23          0.02836     0.49623   
   482. BD*(   1) N   4 - C   7          0.04964     0.50414   
   483. BD*(   1) N   4 - C  10          0.02850     0.49614   
   484. BD*(   1) N   5 - C   6          0.04938     0.50427   
   485. BD*(   1) N   5 - C  21          0.02852     0.49607   
   486. BD*(   2) N   5 - C  21          0.65973    -0.01827  531(v),488(v),497(v),318(g)
                                                    175(g),113(r),514(r),320(g)
                                                    404(v),538(r),229(v),111(r)
                                                    539(r),110(r),112(r)
   487. BD*(   1) C   6 - N  18          0.02158     0.54341   
   488. BD*(   2) C   6 - N  18          0.51027     0.01039  491(r),478(v),514(v),486(v)
                                                    287(g),186(g),539(r),188(g)
                                                    308(v)
   489. BD*(   1) C   6 - C  20          0.03183     0.50079   
   490. BD*(   1) C   7 - N   8          0.02158     0.54341   
   491. BD*(   2) C   7 - N   8          0.51027     0.01039  488(r),480(v),527(v),119(v)
                                                    205(g),196(g),539(r),198(g)
                                                    497(r),378(v)
   492. BD*(   1) C   7 - C  27          0.03183     0.50079   
   493. BD*(   1) N   8 - C   9          0.02155     0.54350   
   494. BD*(   1) C   9 - C  26          0.03175     0.50085   
   495. BD*(   1) C  10 - C  21          0.02958     0.54171   
   496. BD*(   1) C  10 - C  36          0.03370     0.57107   
   497. BD*(   2) C  10 - C  36          0.42982     0.03265  519(r),527(v),510(r),486(v)
                                                    123(v),119(v),531(r),228(g)
                                                    434(g),491(r),422(v)
   498. BD*(   1) H  11 - C  14          0.01130     0.47873   
   499. BD*(   1) H  12 - C  20          0.01130     0.47873   
   500. BD*(   1) C  13 - C  16          0.02174     0.53739   
   501. BD*(   1) C  13 - C  22          0.01053     0.59775   
   502. BD*(   2) C  13 - C  22          0.25467     0.03495  510(v),519(v),505(r),522(r)
                                                    239(g),329(g)
   503. BD*(   1) C  13 - H  40          0.01203     0.46469   
   504. BD*(   1) C  14 - C  15          0.01121     0.61007   
   505. BD*(   2) C  14 - C  15          0.18720     0.03572  510(v),514(r),522(r),478(v)
                                                    527(r),260(g),502(r),250(g)
   506. BD*(   1) C  14 - C  19          0.03175     0.50085   
   507. BD*(   1) C  15 - C  16          0.02226     0.52715   
   508. BD*(   1) C  15 - H  41          0.01282     0.46063   
   509. BD*(   1) C  16 - C  17          0.03370     0.57107   
   510. BD*(   2) C  16 - C  17          0.42982     0.03265  519(v),502(v),505(v),497(r)
                                                    478(v),280(g),270(g),238(v)
   511. BD*(   1) C  17 - C  23          0.02958     0.54175   
   512. BD*(   1) N  18 - C  19          0.02155     0.54350   
   513. BD*(   1) C  20 - C  31          0.01121     0.61007   
   514. BD*(   2) C  20 - C  31          0.18720     0.03572  505(r),531(v),527(r),488(v)
                                                    522(r),393(g),310(g)
   515. BD*(   1) C  21 - C  32          0.03369     0.57107   
   516. BD*(   1) C  22 - C  24          0.02174     0.53739   
   517. BD*(   1) C  22 - H  42          0.01203     0.46469   
   518. BD*(   1) C  23 - C  24          0.03370     0.57107   
   519. BD*(   2) C  23 - C  24          0.42982     0.03265  510(v),497(r),502(v),522(v)
                                                    480(v),340(g),350(g),328(v)
   520. BD*(   1) C  24 - C  25          0.02226     0.52715   
   521. BD*(   1) C  25 - C  26          0.01121     0.61007   
   522. BD*(   2) C  25 - C  26          0.18720     0.03572  519(v),527(r),505(r),480(v)
                                                    514(r),360(g),502(r),370(g)
   523. BD*(   1) C  25 - H  43          0.01282     0.46063   
   524. BD*(   1) C  26 - H  28          0.01130     0.47873   
   525. BD*(   1) C  27 - H  29          0.01130     0.47873   
   526. BD*(   1) C  27 - C  37          0.01121     0.61007   
   527. BD*(   2) C  27 - C  37          0.18720     0.03572  497(v),522(r),514(r),491(v)
                                                    505(r),444(g),380(g)
   528. BD*(   1) H  30 - C  31          0.01282     0.46063   
   529. BD*(   1) C  31 - C  32          0.02226     0.52715   
   530. BD*(   1) C  32 - C  33          0.02175     0.53738   
   531. BD*(   2) C  32 - C  33          0.49535     0.02301  514(v),486(v),123(v),497(r)
                                                    411(g),402(g),423(v),391(v)
   532. BD*(   1) C  33 - H  34          0.01203     0.46469   
   533. BD*(   1) C  33 - C  35          0.01053     0.59775   
   534. BD*(   1) C  35 - C  36          0.02175     0.53738   
   535. BD*(   1) C  35 - H  39          0.01203     0.46469   
   536. BD*(   1) C  36 - C  37          0.02226     0.52715   
   537. BD*(   1) C  37 - H  38          0.01282     0.46063   
       -------------------------------
              Total Lewis  191.69135  ( 96.4362%)
        Valence non-Lewis    6.68344  (  3.3623%)
        Rydberg non-Lewis    0.40061  (  0.2015%)
       -------------------------------
            Total unit  2  198.77540  (100.0000%)
           Charge unit  2   -0.77540
 
 Molecular unit  3  (N2)
    63. BD (   1) N  44 - N  45          1.99699    -0.44962  114(r),119(r),164(r),144(r)
                                                    154(r),174(r)
    64. BD (   2) N  44 - N  45          1.99684    -0.45000  115(r),119(r),164(r),144(r)
                                                    154(r),174(r)
    65. BD (   3) N  44 - N  45          1.98902    -1.21056  112(r),113(r),126(r),456(g)
                                                    111(r),127(r),143(r),133(r)
   105. CR (   1) N  44                  1.99918   -14.26429  112(r),113(r),466(v),111(r)
                                                    126(r)
   106. CR (   1) N  45                  1.99967   -14.19687  456(v),113(r),112(r),111(r)
   124. LP (   1) N  44                  1.66260    -0.57990  112(r),111(r),113(r),127(r)
                                                    126(r),466(v),139(r),143(r)
                                                    540(g),137(r),119(r),175(r)
                                                    145(r),155(r),165(r),133(r)
                                                    484(r),477(r),479(r),482(r)
                                                    478(r),480(r),486(r)
   125. LP (   1) N  45                  1.97059    -0.60822  456(v),113(r),112(r),111(r)
                                                    127(r),126(r),137(r)
   456. RY*(   1) N  44                  0.01271     0.88292   
   457. RY*(   2) N  44                  0.00572     1.35636   
   458. RY*(   3) N  44                  0.00536     1.38567   
   459. RY*(   4) N  44                  0.00223     1.96229   
   460. RY*(   5) N  44                  0.00013     2.00564   
   461. RY*(   6) N  44                  0.00011     1.98980   
   462. RY*(   7) N  44                  0.00009     1.77376   
   463. RY*(   8) N  44                  0.00007     3.10706   
   464. RY*(   9) N  44                  0.00005     1.75467   
   465. RY*(  10) N  44                  0.00003     3.47530   
   466. RY*(   1) N  45                  0.00409     1.14353   
   467. RY*(   2) N  45                  0.00324     0.71464   
   468. RY*(   3) N  45                  0.00311     0.71428   
   469. RY*(   4) N  45                  0.00011     1.34975   
   470. RY*(   5) N  45                  0.00000     3.53159   
   471. RY*(   6) N  45                  0.00000     1.67945   
   472. RY*(   7) N  45                  0.00000     1.83658   
   473. RY*(   8) N  45                  0.00000     1.83613   
   474. RY*(   9) N  45                  0.00000     1.67934   
   475. RY*(  10) N  45                  0.00000     1.98014   
   538. BD*(   1) N  44 - N  45          0.18645     0.01147  467(g),457(g),473(g),114(r)
                                                    486(r),478(r),480(r)
   539. BD*(   2) N  44 - N  45          0.18372     0.01121  468(g),458(g),472(g),115(r)
                                                    488(r),491(r),478(r),480(r)
                                                    486(r)
   540. BD*(   3) N  44 - N  45          0.00395     0.86519   
       -------------------------------
              Total Lewis   13.61490  ( 97.0683%)
        Valence non-Lewis    0.37412  (  2.6673%)
        Rydberg non-Lewis    0.03709  (  0.2644%)
       -------------------------------
            Total unit  3   14.02610  (100.0000%)
           Charge unit  3   -0.02610
 Unable to Open any file for archive entry.
 1\1\GINC-C0712A-S28\FOpt\RB3LYP\6-31G(d)\C24H12Fe1N8\WANGHONGYI\02-Feb
 -2023\0\\#n B3LYP/6-31G(d) Opt scf=xqc pop=nbo\\14mr_N2_1\\0,1\Fe,0.00
 00077613,-0.0000000397,0.5124809209\N,1.3521589276,1.290994348,0.23250
 32198\N,1.3518733479,-1.2912925669,0.2325009433\N,-1.3521657463,-1.290
 9859001,0.2325046912\N,-1.3518801374,1.2912845794,0.2325056307\C,-1.18
 96285018,2.6404864743,0.1516629557\C,-1.1902135017,-2.6402231876,0.151
 6620551\N,-0.0003641811,-3.2727658204,0.1648653282\C,1.1896270228,-2.6
 404925346,0.1516590069\C,-2.5871450128,-0.7107333928,0.1108533872\H,2.
 2617793832,4.5082393382,-0.0260265104\H,-2.2607607531,4.5087352184,-0.
 0260395083\C,4.9892771008,0.6896233703,-0.199941375\C,2.3904545934,3.4
 322710689,0.0125606717\C,3.6303702172,2.8562561661,-0.083235011\C,3.77
 81303336,1.4317112276,-0.0559282843\C,2.5871377858,0.7107334644,0.1108
 519728\N,0.0003604138,3.2727661324,0.1648695754\C,1.1902120238,2.64022
 99431,0.1516650899\C,-2.3896928243,3.4327976605,0.0125516682\C,-2.5869
 870766,0.7113058486,0.1108537604\C,4.9891239467,-0.6907248522,-0.19994
 36706\C,2.5869798981,-0.7113051882,0.1108505334\C,3.777813458,-1.43254
 54466,-0.0559327383\C,3.629737643,-2.8570577856,-0.0832439322\C,2.3896
 94565,-3.4327984424,0.0125506178\C,-2.3904528544,-3.432269231,0.012552
 5767\H,2.2607801186,-4.5087379861,-0.0260401485\H,-2.2617599151,-4.508
 2354004,-0.0260379904\H,-4.511966675,3.4828299255,-0.1956955753\C,-3.6
 297395578,2.8570650707,-0.083244468\C,-3.7778182901,1.4325525549,-0.05
 59325838\C,-4.9891235227,0.690726871,-0.1999475987\H,-5.9238630487,1.2
 314992292,-0.3232256168\C,-4.9892766745,-0.6896237934,-0.1999471324\C,
 -3.7781351667,-1.4317171405,-0.0559318892\C,-3.6303721557,-2.856262187
 6,-0.0832431811\H,-4.5127382899,-3.4818312982,-0.1956928356\H,-5.92413
 59739,-1.2301890508,-0.3232246241\H,5.9241345052,1.230192521,-0.323214
 7771\H,4.5127368398,3.4818258621,-0.1956796604\H,5.9238615542,-1.23150
 0783,-0.3232191291\H,4.511965258,-3.482822878,-0.1956918968\N,0.000012
 8062,-0.0000009427,2.2718917293\N,0.0000103559,-0.0000010355,3.3921338
 026\\Version=ES64L-G16RevC.01\State=1-A\HF=-2623.6082922\RMSD=6.613e-0
 9\RMSF=2.797e-05\Dipole=0.0000274,0.0000004,-0.6656636\Quadrupole=19.7
 324052,-3.7523283,-15.9800769,-0.002571,0.0000231,0.0000078\PG=C01 [X(
 C24H12Fe1N8)]\\@
 The archive entry for this job was punched.


 THE PROBLEM WITH THE LADDER OF SUCCESS IS YOU CAN'T
 CLIMB IT WHILE YOU'RE TWIDDLING YOUR THUMBS.
 Job cpu time:       0 days  5 hours 12 minutes 10.3 seconds.
 Elapsed time:       0 days  0 hours 21 minutes  6.9 seconds.
 File lengths (MBytes):  RWF=    178 Int=      0 D2E=      0 Chk=     24 Scr=      1
 Normal termination of Gaussian 16 at Thu Feb  2 11:04:56 2023.
