 Entering Gaussian System, Link 0=g16
 Initial command:
 /apps/gaussian/16-c02/avx2/g16/l1.exe "/blue/mingjieliu/adrian.gonzalezs/graphyne/gy2/gy2_Co2_C/Gau-54501.inp" -scrdir="/blue/mingjieliu/adrian.gonzalezs/graphyne/gy2/gy2_Co2_C/"
 Entering Link 1 = /apps/gaussian/16-c02/avx2/g16/l1.exe PID=     54503.
  
 Copyright (c) 1988-2021, Gaussian, Inc.  All Rights Reserved.
  
 This is part of the Gaussian(R) 16 program.  It is based on
 the Gaussian(R) 09 system (copyright 2009, Gaussian, Inc.),
 the Gaussian(R) 03 system (copyright 2003, Gaussian, Inc.),
 the Gaussian(R) 98 system (copyright 1998, Gaussian, Inc.),
 the Gaussian(R) 94 system (copyright 1995, Gaussian, Inc.),
 the Gaussian 92(TM) system (copyright 1992, Gaussian, Inc.),
 the Gaussian 90(TM) system (copyright 1990, Gaussian, Inc.),
 the Gaussian 88(TM) system (copyright 1988, Gaussian, Inc.),
 the Gaussian 86(TM) system (copyright 1986, Carnegie Mellon
 University), and the Gaussian 82(TM) system (copyright 1983,
 Carnegie Mellon University). Gaussian is a federally registered
 trademark of Gaussian, Inc.
  
 This software contains proprietary and confidential information,
 including trade secrets, belonging to Gaussian, Inc.
  
 This software is provided under written license and may be
 used, copied, transmitted, or stored only in accord with that
 written license.
  
 The following legend is applicable only to US Government
 contracts under FAR:
  
                    RESTRICTED RIGHTS LEGEND
  
 Use, reproduction and disclosure by the US Government is
 subject to restrictions as set forth in subparagraphs (a)
 and (c) of the Commercial Computer Software - Restricted
 Rights clause in FAR 52.227-19.
  
 Gaussian, Inc.
 340 Quinnipiac St., Bldg. 40, Wallingford CT 06492
  
  
 ---------------------------------------------------------------
 Warning -- This program may not be used in any manner that
 competes with the business of Gaussian, Inc. or will provide
 assistance to any competitor of Gaussian, Inc.  The licensee
 of this program is prohibited from giving any competitor of
 Gaussian, Inc. access to this program.  By using this program,
 the user acknowledges that Gaussian, Inc. is engaged in the
 business of creating and licensing software in the field of
 computational chemistry and represents and warrants to the
 licensee that it is not a competitor of Gaussian, Inc. and that
 it will not use this program in any manner prohibited above.
 ---------------------------------------------------------------
  

 Cite this work as:
 Gaussian 16, Revision C.02,
 M. J. Frisch, G. W. Trucks, H. B. Schlegel, G. E. Scuseria, 
 M. A. Robb, J. R. Cheeseman, G. Scalmani, V. Barone, 
 G. A. Petersson, H. Nakatsuji, X. Li, M. Caricato, A. V. Marenich, 
 J. Bloino, B. G. Janesko, R. Gomperts, B. Mennucci, H. P. Hratchian, 
 J. V. Ortiz, A. F. Izmaylov, J. L. Sonnenberg, D. Williams-Young, 
 F. Ding, F. Lipparini, F. Egidi, J. Goings, B. Peng, A. Petrone, 
 T. Henderson, D. Ranasinghe, V. G. Zakrzewski, J. Gao, N. Rega, 
 G. Zheng, W. Liang, M. Hada, M. Ehara, K. Toyota, R. Fukuda, 
 J. Hasegawa, M. Ishida, T. Nakajima, Y. Honda, O. Kitao, H. Nakai, 
 T. Vreven, K. Throssell, J. A. Montgomery, Jr., J. E. Peralta, 
 F. Ogliaro, M. J. Bearpark, J. J. Heyd, E. N. Brothers, K. N. Kudin, 
 V. N. Staroverov, T. A. Keith, R. Kobayashi, J. Normand, 
 K. Raghavachari, A. P. Rendell, J. C. Burant, S. S. Iyengar, 
 J. Tomasi, M. Cossi, J. M. Millam, M. Klene, C. Adamo, R. Cammi, 
 J. W. Ochterski, R. L. Martin, K. Morokuma, O. Farkas, 
 J. B. Foresman, and D. J. Fox, Gaussian, Inc., Wallingford CT, 2019.
 
 ******************************************
 Gaussian 16:  ES64L-G16RevC.02  7-Dec-2021
                21-Jan-2023 
 ******************************************
 %NProcShared=16
 Will use up to   16 processors via shared memory.
 ----------------------------
 #n B3LYP/6-31G(d) Opt scf=qc
 ----------------------------
 1/18=20,19=15,26=3,38=1/1,3;
 2/9=110,12=2,17=6,18=5,40=1/2;
 3/5=1,6=6,7=1,11=2,25=1,30=1,71=1,74=-5/1,2,3;
 4//1;
 5/5=2,8=3,38=5/8;
 6/7=2,8=2,9=2,10=2,28=1/1;
 7//1,2,3,16;
 1/18=20,19=15,26=3/3(2);
 2/9=110/2;
 99//99;
 2/9=110/2;
 3/5=1,6=6,7=1,11=2,25=1,30=1,71=1,74=-5/1,2,3;
 4/5=5,16=3,69=1/1;
 5/5=2,8=3,38=5/8;
 7//1,2,3,16;
 1/18=20,19=15,26=3/3(-5);
 2/9=110/2;
 6/7=2,8=2,9=2,10=2,19=2,28=1/1;
 99/9=1/99;
 ---------
 gy2_Co2_C
 ---------
 Symbolic Z-matrix:
 Charge =  0 Multiplicity = 1
 C                     6.39     -8.60829   0. 
 C                     5.68     -7.37854   0. 
 C                     4.26     -7.37854   0. 
 C                     3.55     -8.60829   0. 
 C                     4.26     -9.83805   0. 
 C                     5.68     -9.83805   0. 
 C                     6.39     -6.14878   0. 
 C                     3.55     -6.14878   0. 
 C                     7.1      -4.91902   0. 
 C                     2.84     -4.91902   0. 
 C                     7.81     -3.68927   0. 
 C                     2.13     -3.68927   0. 
 C                     8.52     -2.45951   0. 
 C                     1.42     -2.45951   0. 
 H                     7.48     -8.60829   0. 
 H                     2.46     -8.60829   0. 
 H                     3.715    -10.78202   0. 
 H                     6.225    -10.78202   0. 
 Co                    4.97     -4.76829   0. 
 H                     12.45     0.        0. 
 H                     11.195   -2.17372   0. 
 H                     11.195    2.17372   0. 
 H                     8.685     2.17372   0. 
 C                     11.36     0.        0. 
 C                     10.65     1.22976   0. 
 C                     9.23      1.22976   0. 
 C                     8.52      0.        0. 
 C                     9.23     -1.22976   0. 
 C                     10.65    -1.22976   0. 
 Co                    6.61446  -1.92      0. 
 C                     7.1       0.        0. 
 C                     5.68      0.        0. 
 C                     4.26      0.        0. 
 C                     2.84      0.        0. 
 C                     1.42      0.        0. 
 C                     0.71      1.22976   0. 
 C                    -0.71      1.22976   0. 
 C                    -1.42      0.        0. 
 C                    -0.71     -1.22976   0. 
 C                     0.71     -1.22976   0. 
 H                     1.255     2.17372   0. 
 H                    -1.255     2.17372   0. 
 H                    -2.51      0.        0. 
 H                    -1.255    -2.17372   0. 
 

 GradGradGradGradGradGradGradGradGradGradGradGradGradGradGradGradGradGrad
 Berny optimization.
 Initialization pass.
                           ----------------------------
                           !    Initial Parameters    !
                           ! (Angstroms and Degrees)  !
 --------------------------                            --------------------------
 ! Name  Definition              Value          Derivative Info.                !
 --------------------------------------------------------------------------------
 ! R1    R(1,2)                  1.42           estimate D2E/DX2                !
 ! R2    R(1,6)                  1.42           estimate D2E/DX2                !
 ! R3    R(1,15)                 1.09           estimate D2E/DX2                !
 ! R4    R(2,3)                  1.42           estimate D2E/DX2                !
 ! R5    R(2,7)                  1.42           estimate D2E/DX2                !
 ! R6    R(3,4)                  1.42           estimate D2E/DX2                !
 ! R7    R(3,8)                  1.42           estimate D2E/DX2                !
 ! R8    R(4,5)                  1.42           estimate D2E/DX2                !
 ! R9    R(4,16)                 1.09           estimate D2E/DX2                !
 ! R10   R(5,6)                  1.42           estimate D2E/DX2                !
 ! R11   R(5,17)                 1.09           estimate D2E/DX2                !
 ! R12   R(6,18)                 1.09           estimate D2E/DX2                !
 ! R13   R(7,9)                  1.42           estimate D2E/DX2                !
 ! R14   R(7,19)                 1.9804         estimate D2E/DX2                !
 ! R15   R(8,10)                 1.42           estimate D2E/DX2                !
 ! R16   R(8,19)                 1.9804         estimate D2E/DX2                !
 ! R17   R(9,11)                 1.42           estimate D2E/DX2                !
 ! R18   R(9,19)                 2.1353         estimate D2E/DX2                !
 ! R19   R(10,12)                1.42           estimate D2E/DX2                !
 ! R20   R(10,19)                2.1353         estimate D2E/DX2                !
 ! R21   R(11,13)                1.42           estimate D2E/DX2                !
 ! R22   R(11,30)                2.1353         estimate D2E/DX2                !
 ! R23   R(12,14)                1.42           estimate D2E/DX2                !
 ! R24   R(13,28)                1.42           estimate D2E/DX2                !
 ! R25   R(13,30)                1.9804         estimate D2E/DX2                !
 ! R26   R(14,40)                1.42           estimate D2E/DX2                !
 ! R27   R(20,24)                1.09           estimate D2E/DX2                !
 ! R28   R(21,29)                1.09           estimate D2E/DX2                !
 ! R29   R(22,25)                1.09           estimate D2E/DX2                !
 ! R30   R(23,26)                1.09           estimate D2E/DX2                !
 ! R31   R(24,25)                1.42           estimate D2E/DX2                !
 ! R32   R(24,29)                1.42           estimate D2E/DX2                !
 ! R33   R(25,26)                1.42           estimate D2E/DX2                !
 ! R34   R(26,27)                1.42           estimate D2E/DX2                !
 ! R35   R(27,28)                1.42           estimate D2E/DX2                !
 ! R36   R(27,31)                1.42           estimate D2E/DX2                !
 ! R37   R(28,29)                1.42           estimate D2E/DX2                !
 ! R38   R(30,31)                1.9804         estimate D2E/DX2                !
 ! R39   R(30,32)                2.1353         estimate D2E/DX2                !
 ! R40   R(31,32)                1.42           estimate D2E/DX2                !
 ! R41   R(32,33)                1.42           estimate D2E/DX2                !
 ! R42   R(33,34)                1.42           estimate D2E/DX2                !
 ! R43   R(34,35)                1.42           estimate D2E/DX2                !
 ! R44   R(35,36)                1.42           estimate D2E/DX2                !
 ! R45   R(35,40)                1.42           estimate D2E/DX2                !
 ! R46   R(36,37)                1.42           estimate D2E/DX2                !
 ! R47   R(36,41)                1.09           estimate D2E/DX2                !
 ! R48   R(37,38)                1.42           estimate D2E/DX2                !
 ! R49   R(37,42)                1.09           estimate D2E/DX2                !
 ! R50   R(38,39)                1.42           estimate D2E/DX2                !
 ! R51   R(38,43)                1.09           estimate D2E/DX2                !
 ! R52   R(39,40)                1.42           estimate D2E/DX2                !
 ! R53   R(39,44)                1.09           estimate D2E/DX2                !
 ! A1    A(2,1,6)              120.0            estimate D2E/DX2                !
 ! A2    A(2,1,15)             120.0            estimate D2E/DX2                !
 ! A3    A(6,1,15)             120.0            estimate D2E/DX2                !
 ! A4    A(1,2,3)              120.0            estimate D2E/DX2                !
 ! A5    A(1,2,7)              120.0            estimate D2E/DX2                !
 ! A6    A(3,2,7)              120.0            estimate D2E/DX2                !
 ! A7    A(2,3,4)              120.0            estimate D2E/DX2                !
 ! A8    A(2,3,8)              120.0            estimate D2E/DX2                !
 ! A9    A(4,3,8)              120.0            estimate D2E/DX2                !
 ! A10   A(3,4,5)              120.0            estimate D2E/DX2                !
 ! A11   A(3,4,16)             120.0            estimate D2E/DX2                !
 ! A12   A(5,4,16)             120.0            estimate D2E/DX2                !
 ! A13   A(4,5,6)              120.0            estimate D2E/DX2                !
 ! A14   A(4,5,17)             120.0            estimate D2E/DX2                !
 ! A15   A(6,5,17)             120.0            estimate D2E/DX2                !
 ! A16   A(1,6,5)              120.0            estimate D2E/DX2                !
 ! A17   A(1,6,18)             120.0            estimate D2E/DX2                !
 ! A18   A(5,6,18)             120.0            estimate D2E/DX2                !
 ! A19   A(2,7,19)             104.1917         estimate D2E/DX2                !
 ! A20   A(3,8,19)             104.1917         estimate D2E/DX2                !
 ! A21   A(11,9,19)            115.9521         estimate D2E/DX2                !
 ! A22   A(12,10,19)           115.9521         estimate D2E/DX2                !
 ! A23   A(9,11,30)            115.9521         estimate D2E/DX2                !
 ! A24   A(28,13,30)           104.1917         estimate D2E/DX2                !
 ! A25   A(7,19,8)              91.6167         estimate D2E/DX2                !
 ! A26   A(7,19,10)            131.7605         estimate D2E/DX2                !
 ! A27   A(8,19,9)             131.7605         estimate D2E/DX2                !
 ! A28   A(20,24,25)           120.0            estimate D2E/DX2                !
 ! A29   A(20,24,29)           120.0            estimate D2E/DX2                !
 ! A30   A(25,24,29)           120.0            estimate D2E/DX2                !
 ! A31   A(22,25,24)           120.0            estimate D2E/DX2                !
 ! A32   A(22,25,26)           120.0            estimate D2E/DX2                !
 ! A33   A(24,25,26)           120.0            estimate D2E/DX2                !
 ! A34   A(23,26,25)           120.0            estimate D2E/DX2                !
 ! A35   A(23,26,27)           120.0            estimate D2E/DX2                !
 ! A36   A(25,26,27)           120.0            estimate D2E/DX2                !
 ! A37   A(26,27,28)           120.0            estimate D2E/DX2                !
 ! A38   A(26,27,31)           120.0            estimate D2E/DX2                !
 ! A39   A(28,27,31)           120.0            estimate D2E/DX2                !
 ! A40   A(13,28,27)           120.0            estimate D2E/DX2                !
 ! A41   A(13,28,29)           120.0            estimate D2E/DX2                !
 ! A42   A(27,28,29)           120.0            estimate D2E/DX2                !
 ! A43   A(21,29,24)           120.0            estimate D2E/DX2                !
 ! A44   A(21,29,28)           120.0            estimate D2E/DX2                !
 ! A45   A(24,29,28)           120.0            estimate D2E/DX2                !
 ! A46   A(11,30,31)           131.7605         estimate D2E/DX2                !
 ! A47   A(13,30,31)            91.6167         estimate D2E/DX2                !
 ! A48   A(13,30,32)           131.7605         estimate D2E/DX2                !
 ! A49   A(27,31,30)           104.1917         estimate D2E/DX2                !
 ! A50   A(30,32,33)           115.9521         estimate D2E/DX2                !
 ! A51   A(34,35,36)           120.0            estimate D2E/DX2                !
 ! A52   A(34,35,40)           120.0            estimate D2E/DX2                !
 ! A53   A(36,35,40)           120.0            estimate D2E/DX2                !
 ! A54   A(35,36,37)           120.0            estimate D2E/DX2                !
 ! A55   A(35,36,41)           120.0            estimate D2E/DX2                !
 ! A56   A(37,36,41)           120.0            estimate D2E/DX2                !
 ! A57   A(36,37,38)           120.0            estimate D2E/DX2                !
 ! A58   A(36,37,42)           120.0            estimate D2E/DX2                !
 ! A59   A(38,37,42)           120.0            estimate D2E/DX2                !
 ! A60   A(37,38,39)           120.0            estimate D2E/DX2                !
 ! A61   A(37,38,43)           120.0            estimate D2E/DX2                !
 ! A62   A(39,38,43)           120.0            estimate D2E/DX2                !
 ! A63   A(38,39,40)           120.0            estimate D2E/DX2                !
 ! A64   A(38,39,44)           120.0            estimate D2E/DX2                !
 ! A65   A(40,39,44)           120.0            estimate D2E/DX2                !
 ! A66   A(14,40,35)           120.0            estimate D2E/DX2                !
 ! A67   A(14,40,39)           120.0            estimate D2E/DX2                !
 ! A68   A(35,40,39)           120.0            estimate D2E/DX2                !
 ! A69   L(2,7,9,10,-1)        180.0            estimate D2E/DX2                !
 ! A70   L(3,8,10,9,-1)        180.0            estimate D2E/DX2                !
 ! A71   L(7,9,11,12,-1)       180.0            estimate D2E/DX2                !
 ! A72   L(8,10,12,11,-1)      180.0            estimate D2E/DX2                !
 ! A73   L(9,11,13,14,-1)      180.0            estimate D2E/DX2                !
 ! A74   L(10,12,14,13,-1)     180.0            estimate D2E/DX2                !
 ! A75   L(11,13,28,30,-1)     180.0            estimate D2E/DX2                !
 ! A76   L(12,14,40,20,-1)     180.0            estimate D2E/DX2                !
 ! A77   L(9,19,10,2,-1)       171.9043         estimate D2E/DX2                !
 ! A78   L(11,30,32,10,-1)     188.0957         estimate D2E/DX2                !
 ! A79   L(27,31,32,1,-1)      180.0            estimate D2E/DX2                !
 ! A80   L(31,32,33,1,-1)      180.0            estimate D2E/DX2                !
 ! A81   L(32,33,34,1,-1)      180.0            estimate D2E/DX2                !
 ! A82   L(33,34,35,1,-1)      180.0            estimate D2E/DX2                !
 ! A83   L(2,7,9,10,-2)        180.0            estimate D2E/DX2                !
 ! A84   L(3,8,10,9,-2)        180.0            estimate D2E/DX2                !
 ! A85   L(7,9,11,12,-2)       180.0            estimate D2E/DX2                !
 ! A86   L(8,10,12,11,-2)      180.0            estimate D2E/DX2                !
 ! A87   L(9,11,13,14,-2)      180.0            estimate D2E/DX2                !
 ! A88   L(10,12,14,13,-2)     180.0            estimate D2E/DX2                !
 ! A89   L(11,13,28,30,-2)     180.0            estimate D2E/DX2                !
 ! A90   L(12,14,40,20,-2)     180.0            estimate D2E/DX2                !
 ! A91   L(9,19,10,2,-2)       180.0            estimate D2E/DX2                !
 ! A92   L(11,30,32,10,-2)     180.0            estimate D2E/DX2                !
 ! A93   L(27,31,32,1,-2)      180.0            estimate D2E/DX2                !
 ! A94   L(31,32,33,1,-2)      180.0            estimate D2E/DX2                !
 ! A95   L(32,33,34,1,-2)      180.0            estimate D2E/DX2                !
 ! A96   L(33,34,35,1,-2)      180.0            estimate D2E/DX2                !
 ! D1    D(6,1,2,3)              0.0            estimate D2E/DX2                !
 ! D2    D(6,1,2,7)            180.0            estimate D2E/DX2                !
 ! D3    D(15,1,2,3)           180.0            estimate D2E/DX2                !
 ! D4    D(15,1,2,7)             0.0            estimate D2E/DX2                !
 ! D5    D(2,1,6,5)              0.0            estimate D2E/DX2                !
 ! D6    D(2,1,6,18)           180.0            estimate D2E/DX2                !
 ! D7    D(15,1,6,5)           180.0            estimate D2E/DX2                !
 ! D8    D(15,1,6,18)            0.0            estimate D2E/DX2                !
 ! D9    D(1,2,3,4)              0.0            estimate D2E/DX2                !
 ! D10   D(1,2,3,8)            180.0            estimate D2E/DX2                !
 ! D11   D(7,2,3,4)            180.0            estimate D2E/DX2                !
 ! D12   D(7,2,3,8)              0.0            estimate D2E/DX2                !
 ! D13   D(1,2,7,19)           180.0            estimate D2E/DX2                !
 ! D14   D(3,2,7,19)             0.0            estimate D2E/DX2                !
 ! D15   D(2,3,4,5)              0.0            estimate D2E/DX2                !
 ! D16   D(2,3,4,16)           180.0            estimate D2E/DX2                !
 ! D17   D(8,3,4,5)            180.0            estimate D2E/DX2                !
 ! D18   D(8,3,4,16)             0.0            estimate D2E/DX2                !
 ! D19   D(2,3,8,19)             0.0            estimate D2E/DX2                !
 ! D20   D(4,3,8,19)           180.0            estimate D2E/DX2                !
 ! D21   D(3,4,5,6)              0.0            estimate D2E/DX2                !
 ! D22   D(3,4,5,17)           180.0            estimate D2E/DX2                !
 ! D23   D(16,4,5,6)           180.0            estimate D2E/DX2                !
 ! D24   D(16,4,5,17)            0.0            estimate D2E/DX2                !
 ! D25   D(4,5,6,1)              0.0            estimate D2E/DX2                !
 ! D26   D(4,5,6,18)           180.0            estimate D2E/DX2                !
 ! D27   D(17,5,6,1)           180.0            estimate D2E/DX2                !
 ! D28   D(17,5,6,18)            0.0            estimate D2E/DX2                !
 ! D29   D(2,7,19,8)             0.0            estimate D2E/DX2                !
 ! D30   D(2,7,19,10)            0.0            estimate D2E/DX2                !
 ! D31   D(9,7,19,11)            0.0            estimate D2E/DX2                !
 ! D32   D(3,8,19,7)             0.0            estimate D2E/DX2                !
 ! D33   D(3,8,19,9)             0.0            estimate D2E/DX2                !
 ! D34   D(19,9,11,30)           0.0            estimate D2E/DX2                !
 ! D35   D(11,9,19,8)          180.0            estimate D2E/DX2                !
 ! D36   D(11,9,30,13)           0.0            estimate D2E/DX2                !
 ! D37   D(19,10,40,35)          0.0            estimate D2E/DX2                !
 ! D38   D(19,10,40,39)        180.0            estimate D2E/DX2                !
 ! D39   D(12,10,19,7)         180.0            estimate D2E/DX2                !
 ! D40   D(9,11,30,31)         180.0            estimate D2E/DX2                !
 ! D41   D(30,13,28,27)          0.0            estimate D2E/DX2                !
 ! D42   D(30,13,28,29)        180.0            estimate D2E/DX2                !
 ! D43   D(28,13,30,31)          0.0            estimate D2E/DX2                !
 ! D44   D(28,13,30,32)          0.0            estimate D2E/DX2                !
 ! D45   D(20,24,25,22)          0.0            estimate D2E/DX2                !
 ! D46   D(20,24,25,26)        180.0            estimate D2E/DX2                !
 ! D47   D(29,24,25,22)        180.0            estimate D2E/DX2                !
 ! D48   D(29,24,25,26)          0.0            estimate D2E/DX2                !
 ! D49   D(20,24,29,21)          0.0            estimate D2E/DX2                !
 ! D50   D(20,24,29,28)        180.0            estimate D2E/DX2                !
 ! D51   D(25,24,29,21)        180.0            estimate D2E/DX2                !
 ! D52   D(25,24,29,28)          0.0            estimate D2E/DX2                !
 ! D53   D(22,25,26,23)          0.0            estimate D2E/DX2                !
 ! D54   D(22,25,26,27)        180.0            estimate D2E/DX2                !
 ! D55   D(24,25,26,23)        180.0            estimate D2E/DX2                !
 ! D56   D(24,25,26,27)          0.0            estimate D2E/DX2                !
 ! D57   D(23,26,27,28)        180.0            estimate D2E/DX2                !
 ! D58   D(23,26,27,31)          0.0            estimate D2E/DX2                !
 ! D59   D(25,26,27,28)          0.0            estimate D2E/DX2                !
 ! D60   D(25,26,27,31)        180.0            estimate D2E/DX2                !
 ! D61   D(26,27,28,13)        180.0            estimate D2E/DX2                !
 ! D62   D(26,27,28,29)          0.0            estimate D2E/DX2                !
 ! D63   D(31,27,28,13)          0.0            estimate D2E/DX2                !
 ! D64   D(31,27,28,29)        180.0            estimate D2E/DX2                !
 ! D65   D(26,27,31,30)        180.0            estimate D2E/DX2                !
 ! D66   D(28,27,31,30)          0.0            estimate D2E/DX2                !
 ! D67   D(13,28,29,21)          0.0            estimate D2E/DX2                !
 ! D68   D(13,28,29,24)        180.0            estimate D2E/DX2                !
 ! D69   D(27,28,29,21)        180.0            estimate D2E/DX2                !
 ! D70   D(27,28,29,24)          0.0            estimate D2E/DX2                !
 ! D71   D(11,30,31,27)          0.0            estimate D2E/DX2                !
 ! D72   D(13,30,31,27)          0.0            estimate D2E/DX2                !
 ! D73   D(13,30,32,33)        180.0            estimate D2E/DX2                !
 ! D74   D(30,32,35,36)        180.0            estimate D2E/DX2                !
 ! D75   D(30,32,35,40)          0.0            estimate D2E/DX2                !
 ! D76   D(34,35,36,37)        180.0            estimate D2E/DX2                !
 ! D77   D(34,35,36,41)          0.0            estimate D2E/DX2                !
 ! D78   D(40,35,36,37)          0.0            estimate D2E/DX2                !
 ! D79   D(40,35,36,41)        180.0            estimate D2E/DX2                !
 ! D80   D(34,35,40,14)          0.0            estimate D2E/DX2                !
 ! D81   D(34,35,40,39)        180.0            estimate D2E/DX2                !
 ! D82   D(36,35,40,14)        180.0            estimate D2E/DX2                !
 ! D83   D(36,35,40,39)          0.0            estimate D2E/DX2                !
 ! D84   D(35,36,37,38)          0.0            estimate D2E/DX2                !
 ! D85   D(35,36,37,42)        180.0            estimate D2E/DX2                !
 ! D86   D(41,36,37,38)        180.0            estimate D2E/DX2                !
 ! D87   D(41,36,37,42)          0.0            estimate D2E/DX2                !
 ! D88   D(36,37,38,39)          0.0            estimate D2E/DX2                !
 ! D89   D(36,37,38,43)        180.0            estimate D2E/DX2                !
 ! D90   D(42,37,38,39)        180.0            estimate D2E/DX2                !
 ! D91   D(42,37,38,43)          0.0            estimate D2E/DX2                !
 ! D92   D(37,38,39,40)          0.0            estimate D2E/DX2                !
 ! D93   D(37,38,39,44)        180.0            estimate D2E/DX2                !
 ! D94   D(43,38,39,40)        180.0            estimate D2E/DX2                !
 ! D95   D(43,38,39,44)          0.0            estimate D2E/DX2                !
 ! D96   D(38,39,40,14)        180.0            estimate D2E/DX2                !
 ! D97   D(38,39,40,35)          0.0            estimate D2E/DX2                !
 ! D98   D(44,39,40,14)          0.0            estimate D2E/DX2                !
 ! D99   D(44,39,40,35)        180.0            estimate D2E/DX2                !
 --------------------------------------------------------------------------------
 Trust Radius=3.00D-01 FncErr=1.00D-07 GrdErr=1.00D-06 EigMax=2.50D+02 EigMin=1.00D-04
 Number of steps in this run=    258 maximum allowed number of steps=    264.
 GradGradGradGradGradGradGradGradGradGradGradGradGradGradGradGradGradGrad

                          Input orientation:                          
 ---------------------------------------------------------------------
 Center     Atomic      Atomic             Coordinates (Angstroms)
 Number     Number       Type             X           Y           Z
 ---------------------------------------------------------------------
      1          6           0        6.390000   -8.608293    0.000000
      2          6           0        5.680000   -7.378536    0.000000
      3          6           0        4.260000   -7.378536    0.000000
      4          6           0        3.550000   -8.608293    0.000000
      5          6           0        4.260000   -9.838049    0.000000
      6          6           0        5.680000   -9.838049    0.000000
      7          6           0        6.390000   -6.148780    0.000000
      8          6           0        3.550000   -6.148780    0.000000
      9          6           0        7.100000   -4.919024    0.000000
     10          6           0        2.840000   -4.919024    0.000000
     11          6           0        7.810000   -3.689268    0.000000
     12          6           0        2.130000   -3.689268    0.000000
     13          6           0        8.520000   -2.459512    0.000000
     14          6           0        1.420000   -2.459512    0.000000
     15          1           0        7.480000   -8.608293    0.000000
     16          1           0        2.460000   -8.608293    0.000000
     17          1           0        3.715000  -10.782016    0.000000
     18          1           0        6.225000  -10.782016    0.000000
     19         27           0        4.970000   -4.768293    0.000000
     20          1           0       12.450000    0.000000    0.000000
     21          1           0       11.195000   -2.173724    0.000000
     22          1           0       11.195000    2.173724    0.000000
     23          1           0        8.685000    2.173724    0.000000
     24          6           0       11.360000    0.000000    0.000000
     25          6           0       10.650000    1.229756    0.000000
     26          6           0        9.230000    1.229756    0.000000
     27          6           0        8.520000    0.000000    0.000000
     28          6           0        9.230000   -1.229756    0.000000
     29          6           0       10.650000   -1.229756    0.000000
     30         27           0        6.614462   -1.920000    0.000000
     31          6           0        7.100000    0.000000    0.000000
     32          6           0        5.680000    0.000000    0.000000
     33          6           0        4.260000    0.000000    0.000000
     34          6           0        2.840000    0.000000    0.000000
     35          6           0        1.420000    0.000000    0.000000
     36          6           0        0.710000    1.229756    0.000000
     37          6           0       -0.710000    1.229756    0.000000
     38          6           0       -1.420000    0.000000    0.000000
     39          6           0       -0.710000   -1.229756    0.000000
     40          6           0        0.710000   -1.229756    0.000000
     41          1           0        1.255000    2.173724    0.000000
     42          1           0       -1.255000    2.173724    0.000000
     43          1           0       -2.510000    0.000000    0.000000
     44          1           0       -1.255000   -2.173724    0.000000
 ---------------------------------------------------------------------
                    Distance matrix (angstroms):
                    1          2          3          4          5
     1  C    0.000000
     2  C    1.420000   0.000000
     3  C    2.459512   1.420000   0.000000
     4  C    2.840000   2.459512   1.420000   0.000000
     5  C    2.459512   2.840000   2.459512   1.420000   0.000000
     6  C    1.420000   2.459512   2.840000   2.459512   1.420000
     7  C    2.459512   1.420000   2.459512   3.756967   4.260000
     8  C    3.756967   2.459512   1.420000   2.459512   3.756967
     9  C    3.756967   2.840000   3.756967   5.119883   5.680000
    10  C    5.119883   3.756967   2.840000   3.756967   5.119883
    11  C    5.119883   4.260000   5.119883   6.507257   7.100000
    12  C    6.507257   5.119883   4.260000   5.119883   6.507257
    13  C    6.507257   5.680000   6.507257   7.906225   8.520000
    14  C    7.906225   6.507257   5.680000   6.507257   7.906225
    15  H    1.090000   2.179977   3.446839   3.930000   3.446839
    16  H    3.930000   3.446839   2.179977   1.090000   2.179977
    17  H    3.446839   3.930000   3.446839   2.179977   1.090000
    18  H    2.179977   3.446839   3.930000   3.446839   2.179977
    19  Co   4.094142   2.705083   2.705083   4.094142   5.119231
    20  H   10.527407  10.013776  11.023561  12.381951  12.800910
    21  H    8.030672   7.583225   8.670888   9.992482  10.336155
    22  H   11.804232  11.030000  11.804232  13.217333  13.870000
    23  H   11.023561  10.013776  10.527407  11.942366  12.800910
    24  C    9.940000   9.311563  10.239766  11.623201  12.132485
    25  C   10.720765   9.940000  10.720765  12.132485  12.780000
    26  C   10.239766   9.311563   9.940000  11.360000  12.132485
    27  C    8.867897   7.906225   8.520000   9.940000  10.720765
    28  C    7.906225   7.100000   7.906225   9.311563   9.940000
    29  C    8.520000   7.906225   8.867897  10.239766  10.720765
    30  Co   6.692058   5.537945   5.944671   7.356914   8.260689
    31  C    8.637523   7.513934   7.906225   9.311563  10.239766
    32  C    8.637523   7.378536   7.513934   8.867897   9.940000
    33  C    8.867897   7.513934   7.378536   8.637523   9.838049
    34  C    9.311563   7.906225   7.513934   8.637523   9.940000
    35  C    9.940000   8.520000   7.906225   8.867897  10.239766
    36  C   11.360000   9.940000   9.311563  10.239766  11.623201
    37  C   12.132485  10.720765   9.940000  10.720765  12.132485
    38  C   11.623201  10.239766   9.311563   9.940000  11.360000
    39  C   10.239766   8.867897   7.906225   8.520000   9.940000
    40  C    9.311563   7.906225   7.100000   7.906225   9.311563
    41  H   11.942366  10.527407  10.013776  11.023561  12.381951
    42  H   13.217333  11.804232  11.030000  11.804232  13.217333
    43  H   12.381951  11.023561  10.013776  10.527407  11.942366
    44  H    9.992482   8.670888   7.583225   8.030672   9.442304
                    6          7          8          9         10
     6  C    0.000000
     7  C    3.756967   0.000000
     8  C    4.260000   2.840000   0.000000
     9  C    5.119883   1.420000   3.756967   0.000000
    10  C    5.680000   3.756967   1.420000   4.260000   0.000000
    11  C    6.507257   2.840000   4.919024   1.420000   5.119883
    12  C    7.100000   4.919024   2.840000   5.119883   1.420000
    13  C    7.906225   4.260000   6.189636   2.840000   6.189636
    14  C    8.520000   6.189636   4.260000   6.189636   2.840000
    15  H    2.179977   2.690223   4.636173   3.708787   5.927925
    16  H    3.446839   4.636173   2.690223   5.927925   3.708787
    17  H    2.179977   5.350000   4.636173   6.770000   5.927925
    18  H    1.090000   4.636173   5.350000   5.927925   6.770000
    19  Co   5.119231   1.980441   1.980441   2.135327   2.135327
    20  H   11.942366   8.633140  10.817463   7.267689  10.795782
    21  H    9.442304   6.236113   8.616676   4.930081   8.794470
    22  H   13.217333   9.610000  11.300889   8.190000  10.959612
    23  H   12.381951   8.633140   9.779177   7.267689   9.190816
    24  C   11.360000   7.906225   9.940000   6.507257   9.838049
    25  C   12.132485   8.520000  10.239766   7.100000   9.940000
    26  C   11.623201   7.906225   9.311563   6.507257   8.867897
    27  C   10.239766   6.507257   7.906225   5.119883   7.513934
    28  C    9.311563   5.680000   7.513934   4.260000   7.378536
    29  C    9.940000   6.507257   8.637523   5.119883   8.637523
    30  Co   7.972999   4.234733   5.222405   3.038074   4.820862
    31  C    9.940000   6.189637   7.100000   4.919024   6.507257
    32  C    9.838049   6.189637   6.507257   5.119883   5.680000
    33  C    9.940000   6.507257   6.189637   5.680000   5.119883
    34  C   10.239766   7.100000   6.189637   6.507257   4.919024
    35  C   10.720765   7.906225   6.507257   7.513934   5.119883
    36  C   12.132485   9.311563   7.906225   8.867897   6.507257
    37  C   12.780000  10.239766   8.520000   9.940000   7.100000
    38  C   12.132485   9.940000   7.906225   9.838049   6.507257
    39  C   10.720765   8.637523   6.507257   8.637523   5.119883
    40  C    9.940000   7.513934   5.680000   7.378536   4.260000
    41  H   12.800910   9.779177   8.633140   9.190816   7.267689
    42  H   13.870000  11.300889   9.610000  10.959612   8.190000
    43  H   12.800910  10.817463   8.633140  10.795782   7.267689
    44  H   10.336155   8.616676   6.236113   8.794470   4.930081
                   11         12         13         14         15
    11  C    0.000000
    12  C    5.680000   0.000000
    13  C    1.420000   6.507257   0.000000
    14  C    6.507257   1.420000   7.100000   0.000000
    15  H    4.930081   7.267689   6.236113   8.633140   0.000000
    16  H    7.267689   4.930081   8.633140   6.236113   5.020000
    17  H    8.190000   7.267689   9.610000   8.633140   4.347448
    18  H    7.267689   8.190000   8.633140   9.610000   2.510000
    19  Co   3.038074   3.038074   4.234733   4.234733   4.587559
    20  H    5.927925  10.959612   4.636173  11.300889   9.940000
    21  H    3.708787   9.190816   2.690223   9.779177   7.430000
    22  H    6.770000  10.795782   5.350000  10.817463  11.404083
    23  H    5.927925   8.794470   4.636173   8.616676  10.849143
    24  C    5.119883   9.940000   3.756967  10.239766   9.442304
    25  C    5.680000   9.838049   4.260000   9.940000  10.336155
    26  C    5.119883   8.637523   3.756967   8.637523   9.992482
    27  C    3.756967   7.378536   2.459512   7.513934   8.670888
    28  C    2.840000   7.513934   1.420000   7.906225   7.583225
    29  C    3.756967   8.867897   2.459512   9.311563   8.030672
    30  Co   2.135327   4.820862   1.980441   5.222405   6.744065
    31  C    3.756967   6.189636   2.840000   6.189637   8.616676
    32  C    4.260000   5.119883   3.756967   4.919024   8.794470
    33  C    5.119883   4.260000   4.919024   3.756967   9.190816
    34  C    6.189636   3.756967   6.189637   2.840000   9.779177
    35  C    7.378536   3.756967   7.513934   2.459512  10.527407
    36  C    8.637523   5.119883   8.637523   3.756967  11.942366
    37  C    9.838049   5.680000   9.940000   4.260000  12.800910
    38  C    9.940000   5.119883  10.239766   3.756967  12.381951
    39  C    8.867897   3.756967   9.311563   2.459512  11.023561
    40  C    7.513934   2.840000   7.906225   1.420000  10.013776
    41  H    8.794470   5.927925   8.616676   4.636173  12.450000
    42  H   10.795782   6.770000  10.817463   5.350000  13.876314
    43  H   10.959612   5.927925  11.300889   4.636173  13.187221
    44  H    9.190816   3.708787   9.779177   2.690223  10.849143
                   16         17         18         19         20
    16  H    0.000000
    17  H    2.510000   0.000000
    18  H    4.347448   2.510000   0.000000
    19  Co   4.587559   6.143281   6.143281   0.000000
    20  H   13.187221  13.876314  12.450000   8.870570   0.000000
    21  H   10.849143  11.404083   9.940000   6.744065   2.510000
    22  H   13.876314  14.960000  13.876314   9.324281   2.510000
    23  H   12.450000  13.876314  13.187221   7.873552   4.347448
    24  C   12.381951  13.217333  11.942366   7.972999   1.090000
    25  C   12.800910  13.870000  12.800910   8.260689   2.179977
    26  C   11.942366  13.217333  12.381951   7.356914   3.446839
    27  C   10.527407  11.804232  11.023561   5.944671   3.930000
    28  C   10.013776  11.030000  10.013776   5.537945   3.446839
    29  C   11.023561  11.804232  10.527407   6.692058   2.179977
    30  Co   7.873552   9.324281   8.870570   3.288925   6.143281
    31  C    9.779177  11.300889  10.817463   5.222405   5.350000
    32  C    9.190816  10.959612  10.795782   4.820862   6.770000
    33  C    8.794470  10.795782  10.959612   4.820862   8.190000
    34  C    8.616676  10.817463  11.300889   5.222405   9.610000
    35  C    8.670888  11.023561  11.804232   5.944671  11.030000
    36  C    9.992482  12.381951  13.217333   7.356914  11.804232
    37  C   10.336155  12.800910  13.870000   8.260689  13.217333
    38  C    9.442304  11.942366  13.217333   7.972999  13.870000
    39  C    8.030672  10.527407  11.804232   6.692058  13.217333
    40  C    7.583225  10.013776  11.030000   5.537945  11.804232
    41  H   10.849143  13.187221  13.876314   7.873552  11.404083
    42  H   11.404083  13.876314  14.960000   9.324281  13.876314
    43  H    9.940000  12.450000  13.876314   8.870570  14.960000
    44  H    7.430000   9.940000  11.404083   6.744065  13.876314
                   21         22         23         24         25
    21  H    0.000000
    22  H    4.347448   0.000000
    23  H    5.020000   2.510000   0.000000
    24  C    2.179977   2.179977   3.446839   0.000000
    25  C    3.446839   1.090000   2.179977   1.420000   0.000000
    26  C    3.930000   2.179977   1.090000   2.459512   1.420000
    27  C    3.446839   3.446839   2.179977   2.840000   2.459512
    28  C    2.179977   3.930000   3.446839   2.459512   2.840000
    29  C    1.090000   3.446839   3.930000   1.420000   2.459512
    30  Co   4.587559   6.143281   4.587559   5.119231   5.119231
    31  C    4.636173   4.636173   2.690223   4.260000   3.756967
    32  C    5.927925   5.927925   3.708787   5.680000   5.119883
    33  C    7.267689   7.267689   4.930081   7.100000   6.507257
    34  C    8.633140   8.633140   6.236113   8.520000   7.906225
    35  C   10.013776  10.013776   7.583225   9.940000   9.311563
    36  C   11.023561  10.527407   8.030672  10.720765   9.940000
    37  C   12.381951  11.942366   9.442304  12.132485  11.360000
    38  C   12.800910  12.800910  10.336155  12.780000  12.132485
    39  C   11.942366  12.381951   9.992482  12.132485  11.623201
    40  C   10.527407  11.023561   8.670888  10.720765  10.239766
    41  H   10.849143   9.940000   7.430000  10.336155   9.442304
    42  H   13.187221  12.450000   9.940000  12.800910  11.942366
    43  H   13.876314  13.876314  11.404083  13.870000  13.217333
    44  H   12.450000  13.187221  10.849143  12.800910  12.381951
                   26         27         28         29         30
    26  C    0.000000
    27  C    1.420000   0.000000
    28  C    2.459512   1.420000   0.000000
    29  C    2.840000   2.459512   1.420000   0.000000
    30  Co   4.094142   2.705083   2.705083   4.094142   0.000000
    31  C    2.459512   1.420000   2.459512   3.756967   1.980441
    32  C    3.756967   2.840000   3.756967   5.119883   2.135327
    33  C    5.119883   4.260000   5.119883   6.507257   3.038074
    34  C    6.507257   5.680000   6.507257   7.906225   4.234733
    35  C    7.906225   7.100000   7.906225   9.311563   5.537945
    36  C    8.520000   7.906225   8.867897  10.239766   6.692058
    37  C    9.940000   9.311563  10.239766  11.623201   7.972999
    38  C   10.720765   9.940000  10.720765  12.132485   8.260689
    39  C   10.239766   9.311563   9.940000  11.360000   7.356914
    40  C    8.867897   7.906225   8.520000   9.940000   5.944671
    41  H    8.030672   7.583225   8.670888   9.992482   6.744065
    42  H   10.527407  10.013776  11.023561  12.381951   8.870570
    43  H   11.804232  11.030000  11.804232  13.217333   9.324281
    44  H   11.023561  10.013776  10.527407  11.942366   7.873552
                   31         32         33         34         35
    31  C    0.000000
    32  C    1.420000   0.000000
    33  C    2.840000   1.420000   0.000000
    34  C    4.260000   2.840000   1.420000   0.000000
    35  C    5.680000   4.260000   2.840000   1.420000   0.000000
    36  C    6.507257   5.119883   3.756967   2.459512   1.420000
    37  C    7.906225   6.507257   5.119883   3.756967   2.459512
    38  C    8.520000   7.100000   5.680000   4.260000   2.840000
    39  C    7.906225   6.507257   5.119883   3.756967   2.459512
    40  C    6.507257   5.119883   3.756967   2.459512   1.420000
    41  H    6.236113   4.930081   3.708787   2.690223   2.179977
    42  H    8.633140   7.267689   5.927925   4.636173   3.446839
    43  H    9.610000   8.190000   6.770000   5.350000   3.930000
    44  H    8.633140   7.267689   5.927925   4.636173   3.446839
                   36         37         38         39         40
    36  C    0.000000
    37  C    1.420000   0.000000
    38  C    2.459512   1.420000   0.000000
    39  C    2.840000   2.459512   1.420000   0.000000
    40  C    2.459512   2.840000   2.459512   1.420000   0.000000
    41  H    1.090000   2.179977   3.446839   3.930000   3.446839
    42  H    2.179977   1.090000   2.179977   3.446839   3.930000
    43  H    3.446839   2.179977   1.090000   2.179977   3.446839
    44  H    3.930000   3.446839   2.179977   1.090000   2.179977
                   41         42         43         44
    41  H    0.000000
    42  H    2.510000   0.000000
    43  H    4.347448   2.510000   0.000000
    44  H    5.020000   4.347448   2.510000   0.000000
 Stoichiometry    C30H12Co2
 Framework group  C2V[SGV(C30H12Co2)]
 Deg. of freedom    43
 Full point group                 C2V     NOp   4
 Largest Abelian subgroup         C2V     NOp   4
 Largest concise Abelian subgroup C2      NOp   2
                         Standard orientation:                         
 ---------------------------------------------------------------------
 Center     Atomic      Atomic             Coordinates (Angstroms)
 Number     Number       Type             X           Y           Z
 ---------------------------------------------------------------------
      1          6           0        0.000000   -4.260000   -3.890775
      2          6           0        0.000000   -3.550000   -2.661019
      3          6           0        0.000000   -4.260000   -1.431263
      4          6           0        0.000000   -5.680000   -1.431263
      5          6           0        0.000000   -6.390000   -2.661019
      6          6           0        0.000000   -5.680000   -3.890775
      7          6           0        0.000000   -2.130000   -2.661019
      8          6           0        0.000000   -3.550000   -0.201507
      9          6           0        0.000000   -0.710000   -2.661019
     10          6           0        0.000000   -2.840000    1.028249
     11          6           0        0.000000    0.710000   -2.661019
     12          6           0        0.000000   -2.130000    2.258005
     13          6           0        0.000000    2.130000   -2.661019
     14          6           0       -0.000000   -1.420000    3.487761
     15          1           0        0.000000   -3.715000   -4.834743
     16          1           0        0.000000   -6.225000   -0.487295
     17          1           0        0.000000   -7.480000   -2.661019
     18          1           0        0.000000   -6.225000   -4.834743
     19         27           0        0.000000   -1.644462   -0.741019
     20          1           0        0.000000    6.225000   -4.834743
     21          1           0        0.000000    3.715000   -4.834743
     22          1           0        0.000000    7.480000   -2.661019
     23          1           0        0.000000    6.225000   -0.487295
     24          6           0        0.000000    5.680000   -3.890775
     25          6           0        0.000000    6.390000   -2.661019
     26          6           0        0.000000    5.680000   -1.431263
     27          6           0        0.000000    4.260000   -1.431263
     28          6           0        0.000000    3.550000   -2.661019
     29          6           0        0.000000    4.260000   -3.890775
     30         27           0        0.000000    1.644462   -0.741019
     31          6           0        0.000000    3.550000   -0.201507
     32          6           0        0.000000    2.840000    1.028249
     33          6           0        0.000000    2.130000    2.258005
     34          6           0        0.000000    1.420000    3.487761
     35          6           0       -0.000000    0.710000    4.717517
     36          6           0       -0.000000    1.420000    5.947273
     37          6           0       -0.000000    0.710000    7.177029
     38          6           0       -0.000000   -0.710000    7.177029
     39          6           0       -0.000000   -1.420000    5.947273
     40          6           0       -0.000000   -0.710000    4.717517
     41          1           0       -0.000000    2.510000    5.947273
     42          1           0       -0.000000    1.255000    8.120997
     43          1           0       -0.000000   -1.255000    8.120997
     44          1           0       -0.000000   -2.510000    5.947273
 ---------------------------------------------------------------------
 Rotational constants (GHZ):           0.1022544           0.0975555           0.0499249
 Standard basis: 6-31G(d) (6D, 7F)
 There are   204 symmetry adapted cartesian basis functions of A1  symmetry.
 There are    72 symmetry adapted cartesian basis functions of A2  symmetry.
 There are    72 symmetry adapted cartesian basis functions of B1  symmetry.
 There are   204 symmetry adapted cartesian basis functions of B2  symmetry.
 There are   202 symmetry adapted basis functions of A1  symmetry.
 There are    71 symmetry adapted basis functions of A2  symmetry.
 There are    71 symmetry adapted basis functions of B1  symmetry.
 There are   202 symmetry adapted basis functions of B2  symmetry.
   546 basis functions,  1096 primitive gaussians,   552 cartesian basis functions
   123 alpha electrons      123 beta electrons
       nuclear repulsion energy      3441.7398759745 Hartrees.
 NAtoms=   44 NActive=   44 NUniq=   22 SFac= 4.00D+00 NAtFMM=   60 NAOKFM=F Big=F
 Integral buffers will be    131072 words long.
 Raffenetti 2 integral format.
 Two-electron integral symmetry is turned on.
 One-electron integrals computed using PRISM.
 PrsmSu:  requested number of processors reduced to:  12 ShMem   1 Linda.
 NBasis=   546 RedAO= T EigKep=  3.41D-05  NBF=   202    71    71   202
 NBsUse=   546 1.00D-06 EigRej= -1.00D+00 NBFU=   202    71    71   202
 ExpMin= 4.30D-02 ExpMax= 6.61D+04 ExpMxC= 9.93D+03 IAcc=3 IRadAn=         5 AccDes= 0.00D+00
 Harris functional with IExCor=  402 and IRadAn=       5 diagonalized for initial guess.
 HarFok:  IExCor=  402 AccDes= 0.00D+00 IRadAn=         5 IDoV= 1 UseB2=F ITyADJ=14
 ICtDFT=  3500011 ScaDFX=  1.000000  1.000000  1.000000  1.000000
 FoFCou: FMM=F IPFlag=           0 FMFlag=      100000 FMFlg1=           0
         NFxFlg=           0 DoJE=T BraDBF=F KetDBF=T FulRan=T
         wScrn=  0.000000 ICntrl=       500 IOpCl=  0 I1Cent=   200000004 NGrid=           0
         NMat0=    1 NMatS0=      1 NMatT0=    0 NMatD0=    1 NMtDS0=    0 NMtDT0=    0
 Petite list used in FoFCou.
 Initial guess orbital symmetries:
       Occupied  (B2) (A1) (B2) (A1) (B2) (A1) (B2) (A1) (A2) (B1)
                 (A1) (B2) (A1) (B2) (B2) (A1) (B2) (A1) (A1) (B2)
                 (B2) (A1) (B2) (A1) (B2) (A1) (B2) (A1) (B2) (A1)
                 (B2) (A1) (B2) (A1) (B2) (A1) (B2) (A1) (A1) (B2)
                 (B2) (A1) (A1) (B2) (A1) (B2) (B1) (A2) (A1) (A1)
                 (B2) (A1) (B2) (A1) (B2) (A1) (B2) (A1) (B2) (A1)
                 (B2) (B2) (A1) (B2) (A1) (A1) (B2) (A1) (B2) (A1)
                 (A1) (B2) (B2) (A1) (A1) (B2) (B2) (A1) (A1) (A1)
                 (B2) (A1) (B2) (A1) (B2) (B2) (A1) (B2) (B2) (A1)
                 (A1) (A1) (B2) (B1) (B1) (A2) (A1) (B2) (B1) (B1)
                 (A2) (A1) (B1) (A2) (A2) (B2) (B1) (A2) (B1) (A1)
                 (B2) (A2) (A1) (A2) (B1) (A1) (B2) (B1) (B2) (A2)
                 (A1) (B2) (B1)
       Virtual   (A2) (B1) (A2) (A1) (B1) (B1) (B2) (A2) (A2) (A1)
                 (B1) (A2) (A1) (B1) (B2) (A1) (A2) (B2) (B2) (A1)
                 (B2) (B1) (A1) (A2) (B1) (B2) (A1) (B2) (A1) (A2)
                 (A1) (B2) (A2) (B1) (B2) (A1) (A1) (B2) (A1) (A2)
                 (B2) (B2) (B2) (A1) (A1) (B2) (A1) (B2) (A1) (B2)
                 (B2) (A1) (A1) (B2) (A1) (B1) (A1) (B2) (A2) (A1)
                 (B2) (B2) (A1) (B2) (A1) (B2) (B2) (A1) (A1) (A1)
                 (B2) (B2) (A1) (B2) (A1) (B2) (B2) (A1) (B1) (A1)
                 (B2) (A1) (B1) (A2) (A1) (B2) (B2) (B1) (A1) (A1)
                 (B2) (B2) (A1) (A2) (B1) (A2) (B2) (A1) (B2) (A1)
                 (A1) (B1) (A2) (B1) (B2) (A1) (A2) (B2) (A2) (B1)
                 (A1) (B1) (A2) (B1) (B1) (A1) (B2) (A2) (A1) (B1)
                 (A2) (B2) (A2) (B2) (A1) (A1) (B2) (B1) (B2) (B2)
                 (A1) (A2) (B1) (B2) (A1) (A1) (B2) (A1) (B2) (A1)
                 (B2) (A2) (B2) (A1) (B2) (A1) (B2) (A2) (B1) (A1)
                 (B2) (A1) (B2) (A1) (A1) (A1) (B1) (A2) (B2) (A1)
                 (B2) (A1) (B2) (A1) (B2) (B2) (A1) (B2) (A2) (A1)
                 (B2) (B2) (A1) (A1) (A1) (B2) (B2) (A1) (A1) (A1)
                 (B2) (B2) (A1) (B2) (B2) (A1) (A1) (B1) (A1) (B2)
                 (B1) (B2) (B1) (A2) (B2) (A1) (A2) (B1) (B2) (A1)
                 (B2) (B2) (A1) (A2) (B2) (B1) (B2) (B1) (A1) (B1)
                 (A2) (B1) (A2) (A1) (B2) (B1) (B1) (A2) (A2) (A1)
                 (A2) (B1) (A2) (A1) (B2) (B2) (B1) (A1) (B2) (A2)
                 (A2) (A1) (B1) (B2) (B1) (A1) (A2) (B1) (A1) (B2)
                 (A1) (A1) (B2) (A1) (B2) (B1) (A1) (B2) (A2) (B2)
                 (B2) (A1) (A1) (B1) (A1) (B2) (A2) (B2) (A1) (B2)
                 (A1) (A2) (A1) (B2) (B1) (A2) (B1) (B2) (A2) (A1)
                 (B2) (A1) (B2) (A1) (B1) (B2) (A1) (B2) (A1) (A1)
                 (A2) (B1) (B2) (A2) (B2) (A1) (B2) (B2) (A1) (A2)
                 (B1) (B2) (A1) (B1) (B2) (A1) (B2) (A1) (A1) (B2)
                 (A1) (B1) (A2) (A2) (B2) (A2) (B1) (A1) (B2) (A1)
                 (B1) (B1) (A2) (B2) (B1) (A2) (A2) (A1) (A2) (B2)
                 (A1) (A1) (B2) (A1) (B2) (B1) (A2) (A1) (B1) (B2)
                 (B1) (A2) (B1) (A2) (B2) (A1) (A1) (B2) (A1) (B2)
                 (A1) (A2) (B2) (B1) (B2) (B2) (A1) (A2) (A1) (A2)
                 (B1) (B2) (A1) (A1) (B2) (A1) (B2) (B2) (A1) (B2)
                 (A1) (A1) (B2) (B2) (A1) (B2) (B2) (A1) (B2) (A1)
                 (B1) (A2) (A1) (B2) (A2) (A1) (B2) (B2) (B2) (A1)
                 (A1) (B2) (A1) (B2) (B2) (B2) (A1) (B2) (A1) (B2)
                 (B2) (A1) (A1) (A1) (B2) (B2) (B2) (A1) (B2) (A1)
                 (A1) (A1) (B2) (A1) (B2) (B2) (A1) (A1) (B2) (A1)
                 (B2) (B2) (A1) (B2) (A1) (B2) (A1) (B2) (A1) (B2)
                 (B2) (A1) (B2)
 The electronic state of the initial guess is 1-A1.
 Gradient too large for Newton-Raphson -- use scaled steepest descent instead.
     Minimum is close to point  2 DX= -4.23D-03 DF= -7.21D-05 DXR=  1.43D-02 DFR=  2.05D-04 which will be used.
 Gradient too large for Newton-Raphson -- use scaled steepest descent instead.
 Gradient too large for Newton-Raphson -- use scaled steepest descent instead.
     Minimum is close to point  2 DX= -5.89D-03 DF= -1.46D-05 DXR=  2.00D-02 DFR=  4.02D-04 which will be used.
 Gradient too large for Newton-Raphson -- use scaled steepest descent instead.
     Minimum is close to point  4 DX= -1.21D-04 DF= -2.37D-08 DXR=  1.21D-03 DFR=  1.49D-06 which will be used.
 Gradient too large for Newton-Raphson -- use scaled steepest descent instead.
 Gradient too large for Newton-Raphson -- use scaled steepest descent instead.
 Gradient too large for Newton-Raphson -- use scaled steepest descent instead.
     Minimum is close to point  2 DX=  1.56D-02 DF= -3.58D-06 DXR=  3.75D-02 DFR=  1.41D-03 which will be used.
 Gradient too large for Newton-Raphson -- use scaled steepest descent instead.
     Accept linear search using points  1 and  2.
 Restarting incremental Fock formation.
 Gradient too large for Newton-Raphson -- use scaled steepest descent instead.
 Gradient too large for Newton-Raphson -- use scaled steepest descent instead.
     Minimum is close to point  4 DX= -3.58D-04 DF= -5.21D-09 DXR=  3.59D-03 DFR=  1.29D-05 which will be used.
 Gradient too large for Newton-Raphson -- use scaled steepest descent instead.
     Accept linear search using points  1 and  2.
 Gradient too large for Newton-Raphson -- use scaled steepest descent instead.
 Gradient too large for Newton-Raphson -- use scaled steepest descent instead.
     Accept linear search using points  1 and  2.
 Gradient too large for Newton-Raphson -- use scaled steepest descent instead.
     Minimum is close to point  2 DX= -1.44D-03 DF= -2.05D-09 DXR=  7.26D-03 DFR=  5.26D-05 which will be used.
 LinEq1:  Iter=  0 NonCon=     1 RMS=1.35D-04 Max=1.65D-02 NDo=     1
 AX will form     1 AO Fock derivatives at one time.
 LinEq1:  Iter=  1 NonCon=     1 RMS=6.99D-04 Max=1.02D-01 NDo=     1
 LinEq1:  Iter=  2 NonCon=     1 RMS=1.84D-04 Max=1.90D-02 NDo=     1
 LinEq1:  Iter=  3 NonCon=     1 RMS=1.67D-04 Max=1.28D-02 NDo=     1
 LinEq1:  Iter=  4 NonCon=     1 RMS=2.02D-04 Max=2.00D-02 NDo=     1
 LinEq1:  Iter=  5 NonCon=     1 RMS=2.31D-04 Max=2.05D-02 NDo=     1
 LinEq1:  Iter=  6 NonCon=     1 RMS=2.21D-04 Max=1.40D-02 NDo=     1
 LinEq1:  Iter=  7 NonCon=     1 RMS=3.76D-04 Max=2.64D-02 NDo=     1
 LinEq1:  Iter=  8 NonCon=     1 RMS=4.90D-04 Max=2.43D-02 NDo=     1
 LinEq1:  Iter=  9 NonCon=     1 RMS=4.30D-03 Max=8.99D-01 NDo=     1
 LinEq1:  Iter= 10 NonCon=     1 RMS=1.57D-02 Max=9.57D-01 NDo=     1
 LinEq1:  Iter= 11 NonCon=     1 RMS=1.06D-02 Max=6.56D-01 NDo=     1
 LinEq1:  Iter= 12 NonCon=     1 RMS=7.05D-03 Max=3.79D-01 NDo=     1
 LinEq1:  Iter= 13 NonCon=     1 RMS=8.18D-03 Max=5.10D-01 NDo=     1
 LinEq1:  Iter= 14 NonCon=     1 RMS=7.99D-03 Max=4.04D-01 NDo=     1
 LinEq1:  Iter= 15 NonCon=     1 RMS=6.67D-03 Max=5.10D-01 NDo=     1
 LinEq1:  Iter= 16 NonCon=     1 RMS=5.58D-03 Max=3.01D-01 NDo=     1
 LinEq1:  Iter= 17 NonCon=     1 RMS=3.98D-03 Max=3.45D-01 NDo=     1
 LinEq1:  Iter= 18 NonCon=     1 RMS=2.67D-03 Max=1.38D-01 NDo=     1
 LinEq1:  Iter= 19 NonCon=     1 RMS=1.92D-03 Max=9.58D-02 NDo=     1
 LinEq1:  Iter= 20 NonCon=     1 RMS=1.03D-03 Max=3.70D-02 NDo=     1
 LinEq1:  Iter= 21 NonCon=     1 RMS=6.24D-04 Max=3.54D-02 NDo=     1
 LinEq1:  Iter= 22 NonCon=     1 RMS=3.03D-04 Max=1.95D-02 NDo=     1
 LinEq1:  Iter= 23 NonCon=     1 RMS=1.22D-04 Max=7.13D-03 NDo=     1
 LinEq1:  Iter= 24 NonCon=     1 RMS=7.47D-05 Max=2.97D-03 NDo=     1
 LinEq1:  Iter= 25 NonCon=     1 RMS=4.97D-05 Max=2.15D-03 NDo=     1
 LinEq1:  Iter= 26 NonCon=     1 RMS=3.32D-05 Max=2.20D-03 NDo=     1
 LinEq1:  Iter= 27 NonCon=     1 RMS=5.66D-05 Max=3.03D-03 NDo=     1
 LinEq1:  Iter= 28 NonCon=     1 RMS=4.76D-05 Max=2.48D-03 NDo=     1
 LinEq1:  Iter= 29 NonCon=     1 RMS=2.86D-05 Max=1.55D-03 NDo=     1
 LinEq1:  Iter= 30 NonCon=     1 RMS=8.96D-06 Max=4.27D-04 NDo=     1
 LinEq1:  Iter= 31 NonCon=     1 RMS=5.93D-06 Max=3.24D-04 NDo=     1
 LinEq1:  Iter= 32 NonCon=     1 RMS=2.75D-06 Max=1.36D-04 NDo=     1
 LinEq1:  Iter= 33 NonCon=     1 RMS=6.12D-07 Max=2.93D-05 NDo=     1
 LinEq1:  Iter= 34 NonCon=     1 RMS=2.29D-07 Max=1.62D-05 NDo=     1
 LinEq1:  Iter= 35 NonCon=     1 RMS=2.42D-07 Max=1.19D-05 NDo=     1
 LinEq1:  Iter= 36 NonCon=     1 RMS=2.62D-07 Max=8.77D-06 NDo=     1
 LinEq1:  Iter= 37 NonCon=     1 RMS=1.53D-07 Max=9.10D-06 NDo=     1
 LinEq1:  Iter= 38 NonCon=     1 RMS=6.24D-08 Max=3.82D-06 NDo=     1
 LinEq1:  Iter= 39 NonCon=     1 RMS=8.36D-08 Max=4.86D-06 NDo=     1
 LinEq1:  Iter= 40 NonCon=     1 RMS=2.83D-08 Max=1.32D-06 NDo=     1
 LinEq1:  Iter= 41 NonCon=     1 RMS=9.05D-09 Max=4.31D-07 NDo=     1
 LinEq1:  Iter= 42 NonCon=     1 RMS=7.92D-09 Max=4.10D-07 NDo=     1
 LinEq1:  Iter= 43 NonCon=     1 RMS=6.50D-09 Max=3.60D-07 NDo=     1
 LinEq1:  Iter= 44 NonCon=     1 RMS=7.91D-09 Max=6.48D-07 NDo=     1
 LinEq1:  Iter= 45 NonCon=     0 RMS=5.03D-09 Max=2.97D-07 NDo=     1
 Linear equations converged to 3.226D-08 3.226D-07 after    45 iterations.
 Restarting incremental Fock formation.
     Accept linear search using points  1 and  7.
 Gradient too large for Newton-Raphson -- use scaled steepest descent instead.
     Accept linear search using points  1 and  2.
 LinEq1:  Iter=  0 NonCon=     1 RMS=9.49D-05 Max=1.20D-02 NDo=     1
 LinEq1:  Iter=  1 NonCon=     1 RMS=1.33D-04 Max=1.45D-02 NDo=     1
 LinEq1:  Iter=  2 NonCon=     1 RMS=2.88D-04 Max=2.53D-02 NDo=     1
 LinEq1:  Iter=  3 NonCon=     1 RMS=8.02D-04 Max=1.07D-01 NDo=     1
 LinEq1:  Iter=  4 NonCon=     1 RMS=8.58D-04 Max=4.79D-02 NDo=     1
 LinEq1:  Iter=  5 NonCon=     1 RMS=1.11D-03 Max=8.60D-02 NDo=     1
 LinEq1:  Iter=  6 NonCon=     1 RMS=1.27D-03 Max=7.21D-02 NDo=     1
 LinEq1:  Iter=  7 NonCon=     1 RMS=1.17D-03 Max=6.82D-02 NDo=     1
 LinEq1:  Iter=  8 NonCon=     1 RMS=1.20D-03 Max=1.21D-01 NDo=     1
 LinEq1:  Iter=  9 NonCon=     1 RMS=2.04D-02 Max=3.73D+00 NDo=     1
 LinEq1:  Iter= 10 NonCon=     1 RMS=4.04D-02 Max=2.79D+00 NDo=     1
 LinEq1:  Iter= 11 NonCon=     1 RMS=4.75D-02 Max=4.11D+00 NDo=     1
 LinEq1:  Iter= 12 NonCon=     1 RMS=4.97D-02 Max=3.10D+00 NDo=     1
 LinEq1:  Iter= 13 NonCon=     1 RMS=4.66D-02 Max=2.43D+00 NDo=     1
 LinEq1:  Iter= 14 NonCon=     1 RMS=3.19D-02 Max=1.49D+00 NDo=     1
 LinEq1:  Iter= 15 NonCon=     1 RMS=1.71D-02 Max=8.38D-01 NDo=     1
 LinEq1:  Iter= 16 NonCon=     1 RMS=1.45D-02 Max=8.45D-01 NDo=     1
 LinEq1:  Iter= 17 NonCon=     1 RMS=6.82D-03 Max=4.58D-01 NDo=     1
 LinEq1:  Iter= 18 NonCon=     1 RMS=4.36D-03 Max=1.71D-01 NDo=     1
 LinEq1:  Iter= 19 NonCon=     1 RMS=2.54D-03 Max=1.32D-01 NDo=     1
 LinEq1:  Iter= 20 NonCon=     1 RMS=1.66D-03 Max=7.02D-02 NDo=     1
 LinEq1:  Iter= 21 NonCon=     1 RMS=9.31D-04 Max=4.13D-02 NDo=     1
 LinEq1:  Iter= 22 NonCon=     1 RMS=5.00D-04 Max=3.36D-02 NDo=     1
 LinEq1:  Iter= 23 NonCon=     1 RMS=3.50D-04 Max=1.78D-02 NDo=     1
 LinEq1:  Iter= 24 NonCon=     1 RMS=1.95D-04 Max=1.16D-02 NDo=     1
 LinEq1:  Iter= 25 NonCon=     1 RMS=1.07D-04 Max=4.24D-03 NDo=     1
 LinEq1:  Iter= 26 NonCon=     1 RMS=7.63D-05 Max=4.68D-03 NDo=     1
 LinEq1:  Iter= 27 NonCon=     1 RMS=4.55D-05 Max=3.14D-03 NDo=     1
 LinEq1:  Iter= 28 NonCon=     1 RMS=7.96D-05 Max=4.37D-03 NDo=     1
 LinEq1:  Iter= 29 NonCon=     1 RMS=3.47D-05 Max=1.81D-03 NDo=     1
 LinEq1:  Iter= 30 NonCon=     1 RMS=2.28D-05 Max=9.58D-04 NDo=     1
 LinEq1:  Iter= 31 NonCon=     1 RMS=9.75D-06 Max=5.26D-04 NDo=     1
 LinEq1:  Iter= 32 NonCon=     1 RMS=3.05D-06 Max=1.64D-04 NDo=     1
 LinEq1:  Iter= 33 NonCon=     1 RMS=1.17D-06 Max=6.51D-05 NDo=     1
 LinEq1:  Iter= 34 NonCon=     1 RMS=8.59D-07 Max=5.65D-05 NDo=     1
 LinEq1:  Iter= 35 NonCon=     1 RMS=5.90D-07 Max=2.54D-05 NDo=     1
 LinEq1:  Iter= 36 NonCon=     1 RMS=6.63D-07 Max=4.60D-05 NDo=     1
 LinEq1:  Iter= 37 NonCon=     1 RMS=1.94D-07 Max=9.05D-06 NDo=     1
 LinEq1:  Iter= 38 NonCon=     1 RMS=1.89D-07 Max=1.47D-05 NDo=     1
 LinEq1:  Iter= 39 NonCon=     1 RMS=1.41D-07 Max=5.90D-06 NDo=     1
 LinEq1:  Iter= 40 NonCon=     1 RMS=7.74D-08 Max=3.55D-06 NDo=     1
 LinEq1:  Iter= 41 NonCon=     1 RMS=4.56D-08 Max=2.05D-06 NDo=     1
 LinEq1:  Iter= 42 NonCon=     1 RMS=2.34D-08 Max=1.70D-06 NDo=     1
 LinEq1:  Iter= 43 NonCon=     1 RMS=1.14D-08 Max=6.22D-07 NDo=     1
 LinEq1:  Iter= 44 NonCon=     1 RMS=1.10D-08 Max=5.32D-07 NDo=     1
 LinEq1:  Iter= 45 NonCon=     0 RMS=7.13D-09 Max=2.38D-07 NDo=     1
 Linear equations converged to 3.226D-08 3.226D-07 after    45 iterations.
 Incorrect curvature in search direction -- initial direction reversed.
 LinEq1:  Iter=  0 NonCon=     1 RMS=1.06D-04 Max=1.27D-02 NDo=     1
 LinEq1:  Iter=  1 NonCon=     1 RMS=5.32D-05 Max=4.43D-03 NDo=     1
 LinEq1:  Iter=  2 NonCon=     1 RMS=1.04D-04 Max=1.34D-02 NDo=     1
 LinEq1:  Iter=  3 NonCon=     1 RMS=2.97D-04 Max=2.26D-02 NDo=     1
 LinEq1:  Iter=  4 NonCon=     1 RMS=8.83D-04 Max=5.82D-02 NDo=     1
 LinEq1:  Iter=  5 NonCon=     1 RMS=1.25D-03 Max=1.05D-01 NDo=     1
 LinEq1:  Iter=  6 NonCon=     1 RMS=1.52D-03 Max=9.51D-02 NDo=     1
 LinEq1:  Iter=  7 NonCon=     1 RMS=1.39D-03 Max=7.74D-02 NDo=     1
 LinEq1:  Iter=  8 NonCon=     1 RMS=1.32D-03 Max=9.30D-02 NDo=     1
 LinEq1:  Iter=  9 NonCon=     1 RMS=1.66D-02 Max=3.24D+00 NDo=     1
 LinEq1:  Iter= 10 NonCon=     1 RMS=4.50D-02 Max=2.90D+00 NDo=     1
 LinEq1:  Iter= 11 NonCon=     1 RMS=4.81D-02 Max=3.91D+00 NDo=     1
 LinEq1:  Iter= 12 NonCon=     1 RMS=5.12D-02 Max=2.90D+00 NDo=     1
 LinEq1:  Iter= 13 NonCon=     1 RMS=5.12D-02 Max=2.65D+00 NDo=     1
 LinEq1:  Iter= 14 NonCon=     1 RMS=3.52D-02 Max=1.52D+00 NDo=     1
 LinEq1:  Iter= 15 NonCon=     1 RMS=1.94D-02 Max=8.94D-01 NDo=     1
 LinEq1:  Iter= 16 NonCon=     1 RMS=1.63D-02 Max=9.43D-01 NDo=     1
 LinEq1:  Iter= 17 NonCon=     1 RMS=7.45D-03 Max=5.08D-01 NDo=     1
 LinEq1:  Iter= 18 NonCon=     1 RMS=4.82D-03 Max=2.00D-01 NDo=     1
 LinEq1:  Iter= 19 NonCon=     1 RMS=2.77D-03 Max=1.39D-01 NDo=     1
 LinEq1:  Iter= 20 NonCon=     1 RMS=1.83D-03 Max=7.71D-02 NDo=     1
 LinEq1:  Iter= 21 NonCon=     1 RMS=1.03D-03 Max=4.57D-02 NDo=     1
 LinEq1:  Iter= 22 NonCon=     1 RMS=5.35D-04 Max=3.21D-02 NDo=     1
 LinEq1:  Iter= 23 NonCon=     1 RMS=3.81D-04 Max=1.73D-02 NDo=     1
 LinEq1:  Iter= 24 NonCon=     1 RMS=2.10D-04 Max=1.25D-02 NDo=     1
 LinEq1:  Iter= 25 NonCon=     1 RMS=1.22D-04 Max=4.84D-03 NDo=     1
 LinEq1:  Iter= 26 NonCon=     1 RMS=8.83D-05 Max=5.42D-03 NDo=     1
 LinEq1:  Iter= 27 NonCon=     1 RMS=1.07D-04 Max=7.78D-03 NDo=     1
 LinEq1:  Iter= 28 NonCon=     1 RMS=1.02D-04 Max=5.61D-03 NDo=     1
 LinEq1:  Iter= 29 NonCon=     1 RMS=4.00D-05 Max=1.92D-03 NDo=     1
 LinEq1:  Iter= 30 NonCon=     1 RMS=2.66D-05 Max=1.21D-03 NDo=     1
 LinEq1:  Iter= 31 NonCon=     1 RMS=1.10D-05 Max=5.49D-04 NDo=     1
 LinEq1:  Iter= 32 NonCon=     1 RMS=3.35D-06 Max=1.91D-04 NDo=     1
 LinEq1:  Iter= 33 NonCon=     1 RMS=1.34D-06 Max=5.49D-05 NDo=     1
 LinEq1:  Iter= 34 NonCon=     1 RMS=9.21D-07 Max=4.85D-05 NDo=     1
 LinEq1:  Iter= 35 NonCon=     1 RMS=6.62D-07 Max=3.04D-05 NDo=     1
 LinEq1:  Iter= 36 NonCon=     1 RMS=6.75D-07 Max=4.33D-05 NDo=     1
 LinEq1:  Iter= 37 NonCon=     1 RMS=2.44D-07 Max=1.28D-05 NDo=     1
 LinEq1:  Iter= 38 NonCon=     1 RMS=3.33D-07 Max=2.05D-05 NDo=     1
 LinEq1:  Iter= 39 NonCon=     1 RMS=1.52D-07 Max=8.59D-06 NDo=     1
 LinEq1:  Iter= 40 NonCon=     1 RMS=9.42D-08 Max=4.44D-06 NDo=     1
 LinEq1:  Iter= 41 NonCon=     1 RMS=5.25D-08 Max=3.08D-06 NDo=     1
 LinEq1:  Iter= 42 NonCon=     1 RMS=2.84D-08 Max=1.97D-06 NDo=     1
 LinEq1:  Iter= 43 NonCon=     1 RMS=1.21D-08 Max=6.30D-07 NDo=     1
 LinEq1:  Iter= 44 NonCon=     1 RMS=1.11D-08 Max=5.26D-07 NDo=     1
 LinEq1:  Iter= 45 NonCon=     0 RMS=7.78D-09 Max=2.80D-07 NDo=     1
 Linear equations converged to 3.226D-08 3.226D-07 after    45 iterations.
 Incorrect curvature in search direction -- initial direction reversed.
 LinEq1:  Iter=  0 NonCon=     1 RMS=1.12D-04 Max=1.29D-02 NDo=     1
 LinEq1:  Iter=  1 NonCon=     1 RMS=1.22D-04 Max=1.21D-02 NDo=     1
 LinEq1:  Iter=  2 NonCon=     1 RMS=3.93D-04 Max=3.52D-02 NDo=     1
 LinEq1:  Iter=  3 NonCon=     1 RMS=9.96D-04 Max=1.37D-01 NDo=     1
 LinEq1:  Iter=  4 NonCon=     1 RMS=1.16D-03 Max=6.92D-02 NDo=     1
 LinEq1:  Iter=  5 NonCon=     1 RMS=1.32D-03 Max=1.07D-01 NDo=     1
 LinEq1:  Iter=  6 NonCon=     1 RMS=1.68D-03 Max=1.10D-01 NDo=     1
 LinEq1:  Iter=  7 NonCon=     1 RMS=1.53D-03 Max=8.36D-02 NDo=     1
 LinEq1:  Iter=  8 NonCon=     1 RMS=1.42D-03 Max=1.09D-01 NDo=     1
 LinEq1:  Iter=  9 NonCon=     1 RMS=1.44D-02 Max=2.87D+00 NDo=     1
 LinEq1:  Iter= 10 NonCon=     1 RMS=4.75D-02 Max=3.16D+00 NDo=     1
 LinEq1:  Iter= 11 NonCon=     1 RMS=4.60D-02 Max=3.53D+00 NDo=     1
 LinEq1:  Iter= 12 NonCon=     1 RMS=4.84D-02 Max=2.67D+00 NDo=     1
 LinEq1:  Iter= 13 NonCon=     1 RMS=5.21D-02 Max=2.65D+00 NDo=     1
 LinEq1:  Iter= 14 NonCon=     1 RMS=3.63D-02 Max=1.51D+00 NDo=     1
 LinEq1:  Iter= 15 NonCon=     1 RMS=2.05D-02 Max=9.04D-01 NDo=     1
 LinEq1:  Iter= 16 NonCon=     1 RMS=1.71D-02 Max=9.71D-01 NDo=     1
 LinEq1:  Iter= 17 NonCon=     1 RMS=7.63D-03 Max=5.26D-01 NDo=     1
 LinEq1:  Iter= 18 NonCon=     1 RMS=5.00D-03 Max=2.18D-01 NDo=     1
 LinEq1:  Iter= 19 NonCon=     1 RMS=2.85D-03 Max=1.41D-01 NDo=     1
 LinEq1:  Iter= 20 NonCon=     1 RMS=1.91D-03 Max=7.97D-02 NDo=     1
 LinEq1:  Iter= 21 NonCon=     1 RMS=1.06D-03 Max=4.74D-02 NDo=     1
 LinEq1:  Iter= 22 NonCon=     1 RMS=5.41D-04 Max=2.88D-02 NDo=     1
 LinEq1:  Iter= 23 NonCon=     1 RMS=3.90D-04 Max=1.59D-02 NDo=     1
 LinEq1:  Iter= 24 NonCon=     1 RMS=2.12D-04 Max=1.23D-02 NDo=     1
 LinEq1:  Iter= 25 NonCon=     1 RMS=1.28D-04 Max=5.02D-03 NDo=     1
 LinEq1:  Iter= 26 NonCon=     1 RMS=9.78D-05 Max=5.78D-03 NDo=     1
 LinEq1:  Iter= 27 NonCon=     1 RMS=1.57D-04 Max=1.04D-02 NDo=     1
 LinEq1:  Iter= 28 NonCon=     1 RMS=1.07D-04 Max=5.34D-03 NDo=     1
 LinEq1:  Iter= 29 NonCon=     1 RMS=4.25D-05 Max=2.02D-03 NDo=     1
 LinEq1:  Iter= 30 NonCon=     1 RMS=2.87D-05 Max=1.37D-03 NDo=     1
 LinEq1:  Iter= 31 NonCon=     1 RMS=1.15D-05 Max=5.11D-04 NDo=     1
 LinEq1:  Iter= 32 NonCon=     1 RMS=3.43D-06 Max=2.02D-04 NDo=     1
 LinEq1:  Iter= 33 NonCon=     1 RMS=1.44D-06 Max=5.30D-05 NDo=     1
 LinEq1:  Iter= 34 NonCon=     1 RMS=9.23D-07 Max=5.37D-05 NDo=     1
 LinEq1:  Iter= 35 NonCon=     1 RMS=6.42D-07 Max=2.82D-05 NDo=     1
 LinEq1:  Iter= 36 NonCon=     1 RMS=6.50D-07 Max=2.88D-05 NDo=     1
 LinEq1:  Iter= 37 NonCon=     1 RMS=2.00D-07 Max=8.10D-06 NDo=     1
 LinEq1:  Iter= 38 NonCon=     1 RMS=2.37D-07 Max=1.75D-05 NDo=     1
 LinEq1:  Iter= 39 NonCon=     1 RMS=1.38D-07 Max=7.17D-06 NDo=     1
 LinEq1:  Iter= 40 NonCon=     1 RMS=9.62D-08 Max=4.30D-06 NDo=     1
 LinEq1:  Iter= 41 NonCon=     1 RMS=5.00D-08 Max=3.52D-06 NDo=     1
 LinEq1:  Iter= 42 NonCon=     1 RMS=2.84D-08 Max=1.62D-06 NDo=     1
 LinEq1:  Iter= 43 NonCon=     1 RMS=1.63D-08 Max=7.36D-07 NDo=     1
 LinEq1:  Iter= 44 NonCon=     1 RMS=1.82D-08 Max=7.41D-07 NDo=     1
 LinEq1:  Iter= 45 NonCon=     0 RMS=7.07D-09 Max=3.11D-07 NDo=     1
 Linear equations converged to 3.226D-08 3.226D-07 after    45 iterations.
 Gradient too large for Newton-Raphson -- use scaled steepest descent instead.
     Accept linear search using points  1 and  2.
 Restarting incremental Fock formation.
 LinEq1:  Iter=  0 NonCon=     1 RMS=9.99D-05 Max=1.28D-02 NDo=     1
 LinEq1:  Iter=  1 NonCon=     1 RMS=7.41D-05 Max=8.23D-03 NDo=     1
 LinEq1:  Iter=  2 NonCon=     1 RMS=2.31D-04 Max=2.47D-02 NDo=     1
 LinEq1:  Iter=  3 NonCon=     1 RMS=7.48D-04 Max=7.57D-02 NDo=     1
 LinEq1:  Iter=  4 NonCon=     1 RMS=1.23D-03 Max=9.35D-02 NDo=     1
 LinEq1:  Iter=  5 NonCon=     1 RMS=1.10D-03 Max=1.04D-01 NDo=     1
 LinEq1:  Iter=  6 NonCon=     1 RMS=1.51D-03 Max=1.16D-01 NDo=     1
 LinEq1:  Iter=  7 NonCon=     1 RMS=1.52D-03 Max=7.62D-02 NDo=     1
 LinEq1:  Iter=  8 NonCon=     1 RMS=1.20D-03 Max=8.72D-02 NDo=     1
 LinEq1:  Iter=  9 NonCon=     1 RMS=1.42D-03 Max=1.36D-01 NDo=     1
 LinEq1:  Iter= 10 NonCon=     1 RMS=2.08D-02 Max=3.72D+00 NDo=     1
 LinEq1:  Iter= 11 NonCon=     1 RMS=3.61D-02 Max=3.38D+00 NDo=     1
 LinEq1:  Iter= 12 NonCon=     1 RMS=3.28D-02 Max=2.22D+00 NDo=     1
 LinEq1:  Iter= 13 NonCon=     1 RMS=3.83D-02 Max=2.06D+00 NDo=     1
 LinEq1:  Iter= 14 NonCon=     1 RMS=3.27D-02 Max=1.41D+00 NDo=     1
 LinEq1:  Iter= 15 NonCon=     1 RMS=2.24D-02 Max=9.89D-01 NDo=     1
 LinEq1:  Iter= 16 NonCon=     1 RMS=1.72D-02 Max=8.56D-01 NDo=     1
 LinEq1:  Iter= 17 NonCon=     1 RMS=7.66D-03 Max=5.13D-01 NDo=     1
 LinEq1:  Iter= 18 NonCon=     1 RMS=5.18D-03 Max=2.59D-01 NDo=     1
 LinEq1:  Iter= 19 NonCon=     1 RMS=3.14D-03 Max=1.80D-01 NDo=     1
 LinEq1:  Iter= 20 NonCon=     1 RMS=1.97D-03 Max=8.35D-02 NDo=     1
 LinEq1:  Iter= 21 NonCon=     1 RMS=1.25D-03 Max=5.65D-02 NDo=     1
 LinEq1:  Iter= 22 NonCon=     1 RMS=5.69D-04 Max=2.58D-02 NDo=     1
 LinEq1:  Iter= 23 NonCon=     1 RMS=4.58D-04 Max=2.28D-02 NDo=     1
 LinEq1:  Iter= 24 NonCon=     1 RMS=2.13D-04 Max=9.93D-03 NDo=     1
 LinEq1:  Iter= 25 NonCon=     1 RMS=1.51D-04 Max=6.47D-03 NDo=     1
 LinEq1:  Iter= 26 NonCon=     1 RMS=1.61D-04 Max=9.20D-03 NDo=     1
 LinEq1:  Iter= 27 NonCon=     1 RMS=2.63D-04 Max=1.33D-02 NDo=     1
 LinEq1:  Iter= 28 NonCon=     1 RMS=1.18D-04 Max=5.63D-03 NDo=     1
 LinEq1:  Iter= 29 NonCon=     1 RMS=4.50D-05 Max=2.09D-03 NDo=     1
 LinEq1:  Iter= 30 NonCon=     1 RMS=3.27D-05 Max=1.82D-03 NDo=     1
 LinEq1:  Iter= 31 NonCon=     1 RMS=1.14D-05 Max=4.89D-04 NDo=     1
 LinEq1:  Iter= 32 NonCon=     1 RMS=3.10D-06 Max=1.67D-04 NDo=     1
 LinEq1:  Iter= 33 NonCon=     1 RMS=1.82D-06 Max=6.53D-05 NDo=     1
 LinEq1:  Iter= 34 NonCon=     1 RMS=1.30D-06 Max=4.58D-05 NDo=     1
 LinEq1:  Iter= 35 NonCon=     1 RMS=1.84D-06 Max=6.60D-05 NDo=     1
 LinEq1:  Iter= 36 NonCon=     1 RMS=7.50D-07 Max=4.54D-05 NDo=     1
 LinEq1:  Iter= 37 NonCon=     1 RMS=2.75D-07 Max=1.71D-05 NDo=     1
 LinEq1:  Iter= 38 NonCon=     1 RMS=3.66D-07 Max=2.27D-05 NDo=     1
 LinEq1:  Iter= 39 NonCon=     1 RMS=1.84D-07 Max=1.51D-05 NDo=     1
 LinEq1:  Iter= 40 NonCon=     1 RMS=1.72D-07 Max=2.02D-05 NDo=     1
 LinEq1:  Iter= 41 NonCon=     1 RMS=1.48D-07 Max=1.45D-05 NDo=     1
 LinEq1:  Iter= 42 NonCon=     1 RMS=4.85D-08 Max=2.64D-06 NDo=     1
 LinEq1:  Iter= 43 NonCon=     1 RMS=2.31D-08 Max=1.02D-06 NDo=     1
 LinEq1:  Iter= 44 NonCon=     1 RMS=2.59D-08 Max=1.32D-06 NDo=     1
 LinEq1:  Iter= 45 NonCon=     1 RMS=8.57D-09 Max=3.43D-07 NDo=     1
 LinEq1:  Iter= 46 NonCon=     0 RMS=3.77D-09 Max=2.69D-07 NDo=     1
 Linear equations converged to 3.226D-08 3.226D-07 after    46 iterations.
     Accept linear search using points  1 and  2.
     Minimum is close to point  2 DX= -6.48D-02 DF= -1.09D-06 DXR=  6.93D-02 DFR=  5.12D-03 which will be used.
 LinEq1:  Iter=  0 NonCon=     1 RMS=6.11D-05 Max=6.29D-03 NDo=     1
 LinEq1:  Iter=  1 NonCon=     1 RMS=6.09D-05 Max=1.10D-02 NDo=     1
 LinEq1:  Iter=  2 NonCon=     1 RMS=1.07D-04 Max=9.84D-03 NDo=     1
 LinEq1:  Iter=  3 NonCon=     1 RMS=1.23D-04 Max=9.33D-03 NDo=     1
 LinEq1:  Iter=  4 NonCon=     1 RMS=1.80D-04 Max=1.81D-02 NDo=     1
 LinEq1:  Iter=  5 NonCon=     1 RMS=2.05D-04 Max=1.61D-02 NDo=     1
 LinEq1:  Iter=  6 NonCon=     1 RMS=1.47D-04 Max=9.02D-03 NDo=     1
 LinEq1:  Iter=  7 NonCon=     1 RMS=1.44D-04 Max=1.46D-02 NDo=     1
 LinEq1:  Iter=  8 NonCon=     1 RMS=1.61D-04 Max=1.50D-02 NDo=     1
 LinEq1:  Iter=  9 NonCon=     1 RMS=2.14D-03 Max=3.85D-01 NDo=     1
 LinEq1:  Iter= 10 NonCon=     1 RMS=5.35D-03 Max=3.08D-01 NDo=     1
 LinEq1:  Iter= 11 NonCon=     1 RMS=4.88D-03 Max=3.37D-01 NDo=     1
 LinEq1:  Iter= 12 NonCon=     1 RMS=4.04D-03 Max=3.53D-01 NDo=     1
 LinEq1:  Iter= 13 NonCon=     1 RMS=3.65D-03 Max=2.58D-01 NDo=     1
 LinEq1:  Iter= 14 NonCon=     1 RMS=2.89D-03 Max=1.67D-01 NDo=     1
 LinEq1:  Iter= 15 NonCon=     1 RMS=2.59D-03 Max=1.12D-01 NDo=     1
 LinEq1:  Iter= 16 NonCon=     1 RMS=1.40D-03 Max=6.91D-02 NDo=     1
 LinEq1:  Iter= 17 NonCon=     1 RMS=9.49D-04 Max=4.87D-02 NDo=     1
 LinEq1:  Iter= 18 NonCon=     1 RMS=5.16D-04 Max=2.57D-02 NDo=     1
 LinEq1:  Iter= 19 NonCon=     1 RMS=2.75D-04 Max=1.64D-02 NDo=     1
 LinEq1:  Iter= 20 NonCon=     1 RMS=1.78D-04 Max=8.08D-03 NDo=     1
 LinEq1:  Iter= 21 NonCon=     1 RMS=9.96D-05 Max=5.93D-03 NDo=     1
 LinEq1:  Iter= 22 NonCon=     1 RMS=5.19D-05 Max=2.51D-03 NDo=     1
 LinEq1:  Iter= 23 NonCon=     1 RMS=3.56D-05 Max=1.44D-03 NDo=     1
 LinEq1:  Iter= 24 NonCon=     1 RMS=1.75D-05 Max=9.96D-04 NDo=     1
 LinEq1:  Iter= 25 NonCon=     1 RMS=1.00D-05 Max=3.73D-04 NDo=     1
 LinEq1:  Iter= 26 NonCon=     1 RMS=1.44D-05 Max=7.91D-04 NDo=     1
 LinEq1:  Iter= 27 NonCon=     1 RMS=1.85D-05 Max=7.04D-04 NDo=     1
 LinEq1:  Iter= 28 NonCon=     1 RMS=7.65D-06 Max=3.87D-04 NDo=     1
 LinEq1:  Iter= 29 NonCon=     1 RMS=4.06D-06 Max=1.69D-04 NDo=     1
 LinEq1:  Iter= 30 NonCon=     1 RMS=2.03D-06 Max=1.46D-04 NDo=     1
 LinEq1:  Iter= 31 NonCon=     1 RMS=6.41D-07 Max=3.21D-05 NDo=     1
 LinEq1:  Iter= 32 NonCon=     1 RMS=3.67D-07 Max=1.78D-05 NDo=     1
 LinEq1:  Iter= 33 NonCon=     1 RMS=2.64D-07 Max=1.52D-05 NDo=     1
 LinEq1:  Iter= 34 NonCon=     1 RMS=2.61D-07 Max=1.13D-05 NDo=     1
 LinEq1:  Iter= 35 NonCon=     1 RMS=2.24D-07 Max=1.79D-05 NDo=     1
 LinEq1:  Iter= 36 NonCon=     1 RMS=1.50D-07 Max=1.73D-05 NDo=     1
 LinEq1:  Iter= 37 NonCon=     1 RMS=2.30D-07 Max=1.55D-05 NDo=     1
 LinEq1:  Iter= 38 NonCon=     1 RMS=1.72D-07 Max=8.97D-06 NDo=     1
 LinEq1:  Iter= 39 NonCon=     1 RMS=7.01D-08 Max=4.54D-06 NDo=     1
 LinEq1:  Iter= 40 NonCon=     1 RMS=5.49D-08 Max=4.15D-06 NDo=     1
 LinEq1:  Iter= 41 NonCon=     1 RMS=4.58D-08 Max=2.62D-06 NDo=     1
 LinEq1:  Iter= 42 NonCon=     1 RMS=1.82D-08 Max=1.21D-06 NDo=     1
 LinEq1:  Iter= 43 NonCon=     0 RMS=4.11D-09 Max=2.22D-07 NDo=     1
 Linear equations converged to 3.226D-08 3.226D-07 after    43 iterations.
     Minimum is close to point  2 DX=  3.20D-02 DF= -5.40D-09 DXR=  3.10D-02 DFR=  9.62D-04 which will be used.
 LinEq1:  Iter=  0 NonCon=     1 RMS=1.03D-06 Max=2.10D-04 NDo=     1
 LinEq1:  Iter=  1 NonCon=     1 RMS=4.18D-06 Max=3.80D-04 NDo=     1
 LinEq1:  Iter=  2 NonCon=     1 RMS=3.79D-06 Max=3.59D-04 NDo=     1
 LinEq1:  Iter=  3 NonCon=     1 RMS=5.41D-06 Max=4.52D-04 NDo=     1
 LinEq1:  Iter=  4 NonCon=     1 RMS=8.02D-06 Max=5.45D-04 NDo=     1
 LinEq1:  Iter=  5 NonCon=     1 RMS=7.85D-06 Max=7.30D-04 NDo=     1
 LinEq1:  Iter=  6 NonCon=     1 RMS=9.38D-06 Max=6.92D-04 NDo=     1
 LinEq1:  Iter=  7 NonCon=     1 RMS=1.69D-05 Max=3.01D-03 NDo=     1
 LinEq1:  Iter=  8 NonCon=     1 RMS=2.29D-04 Max=2.14D-02 NDo=     1
 LinEq1:  Iter=  9 NonCon=     1 RMS=2.33D-04 Max=1.53D-02 NDo=     1
 LinEq1:  Iter= 10 NonCon=     1 RMS=2.62D-04 Max=1.83D-02 NDo=     1
 LinEq1:  Iter= 11 NonCon=     1 RMS=2.34D-04 Max=1.09D-02 NDo=     1
 LinEq1:  Iter= 12 NonCon=     1 RMS=1.87D-04 Max=1.81D-02 NDo=     1
 LinEq1:  Iter= 13 NonCon=     1 RMS=1.27D-04 Max=9.39D-03 NDo=     1
 LinEq1:  Iter= 14 NonCon=     1 RMS=7.90D-05 Max=4.82D-03 NDo=     1
 LinEq1:  Iter= 15 NonCon=     1 RMS=4.59D-05 Max=2.17D-03 NDo=     1
 LinEq1:  Iter= 16 NonCon=     1 RMS=3.83D-05 Max=2.92D-03 NDo=     1
 LinEq1:  Iter= 17 NonCon=     1 RMS=2.49D-05 Max=1.51D-03 NDo=     1
 LinEq1:  Iter= 18 NonCon=     1 RMS=1.58D-05 Max=8.37D-04 NDo=     1
 LinEq1:  Iter= 19 NonCon=     1 RMS=8.14D-06 Max=4.35D-04 NDo=     1
 LinEq1:  Iter= 20 NonCon=     1 RMS=6.30D-06 Max=3.82D-04 NDo=     1
 LinEq1:  Iter= 21 NonCon=     1 RMS=2.86D-06 Max=1.91D-04 NDo=     1
 LinEq1:  Iter= 22 NonCon=     1 RMS=1.85D-06 Max=9.11D-05 NDo=     1
 LinEq1:  Iter= 23 NonCon=     1 RMS=2.20D-06 Max=1.20D-04 NDo=     1
 LinEq1:  Iter= 24 NonCon=     1 RMS=3.23D-06 Max=1.20D-04 NDo=     1
 LinEq1:  Iter= 25 NonCon=     1 RMS=1.94D-06 Max=8.61D-05 NDo=     1
 LinEq1:  Iter= 26 NonCon=     1 RMS=9.49D-07 Max=4.28D-05 NDo=     1
 LinEq1:  Iter= 27 NonCon=     1 RMS=6.11D-07 Max=2.20D-05 NDo=     1
 LinEq1:  Iter= 28 NonCon=     1 RMS=2.40D-07 Max=1.52D-05 NDo=     1
 LinEq1:  Iter= 29 NonCon=     1 RMS=1.17D-07 Max=4.86D-06 NDo=     1
 LinEq1:  Iter= 30 NonCon=     1 RMS=1.00D-07 Max=7.11D-06 NDo=     1
 LinEq1:  Iter= 31 NonCon=     1 RMS=8.36D-08 Max=4.77D-06 NDo=     1
 LinEq1:  Iter= 32 NonCon=     1 RMS=1.26D-07 Max=7.13D-06 NDo=     1
 LinEq1:  Iter= 33 NonCon=     1 RMS=8.59D-08 Max=6.36D-06 NDo=     1
 LinEq1:  Iter= 34 NonCon=     1 RMS=7.86D-08 Max=5.88D-06 NDo=     1
 LinEq1:  Iter= 35 NonCon=     1 RMS=1.15D-07 Max=1.21D-05 NDo=     1
 LinEq1:  Iter= 36 NonCon=     1 RMS=1.15D-07 Max=6.12D-06 NDo=     1
 LinEq1:  Iter= 37 NonCon=     1 RMS=6.27D-08 Max=2.76D-06 NDo=     1
 LinEq1:  Iter= 38 NonCon=     1 RMS=1.83D-08 Max=7.14D-07 NDo=     1
[...]
    14  C    0.048182  -0.000000   0.000000  -0.000000   0.000000   0.000000
    15  H    0.000527   0.000000  -0.000000   0.000000  -0.000000  -0.000000
    16  H    0.001240   0.000000  -0.000000   0.000000   0.000000  -0.000000
    17  H   -0.000023  -0.000000   0.000000   0.000000   0.000000   0.000000
    18  H   -0.000050  -0.000000   0.000000  -0.000000   0.000000   0.000000
    19  Co  27.698179  -0.000004   0.000150  -0.000005   0.000143   0.000065
    20  H   -0.000004   0.583217  -0.004818  -0.004807  -0.000173   0.357269
    21  H    0.000150  -0.004818   0.572204  -0.000173   0.000017  -0.042833
    22  H   -0.000005  -0.004807  -0.000173   0.583164  -0.004909  -0.040366
    23  H    0.000143  -0.000173   0.000017  -0.004909   0.570069   0.004057
    24  C    0.000065   0.357269  -0.042833  -0.040366   0.004057   4.907783
    25  C    0.000041  -0.039530   0.004111   0.358212  -0.043361   0.513275
    26  C   -0.000153   0.003919   0.000486  -0.036581   0.354060  -0.023006
    27  C    0.004709   0.001198   0.003946   0.002449  -0.032656  -0.039605
    28  C   -0.005530   0.001869  -0.035891   0.000873   0.004299  -0.006260
    29  C   -0.000523  -0.035998   0.355035   0.004326   0.000595   0.501204
    30  Co  -1.344458  -0.000050   0.000527  -0.000023   0.001240  -0.000523
    31  C    0.039859   0.000014  -0.000233  -0.000230  -0.004300  -0.000429
    32  C    0.038467  -0.000000  -0.000001  -0.000000   0.000555   0.000005
    33  C   -0.043927  -0.000000  -0.000000   0.000000  -0.000143  -0.000000
    34  C   -0.028096  -0.000000  -0.000000   0.000000  -0.000010   0.000000
    35  C   -0.008163  -0.000000  -0.000000   0.000000  -0.000000   0.000000
    36  C   -0.000287  -0.000000   0.000000  -0.000000  -0.000000  -0.000000
    37  C    0.000012   0.000000  -0.000000   0.000000  -0.000000   0.000000
    38  C   -0.000014   0.000000  -0.000000   0.000000  -0.000000  -0.000000
    39  C    0.000420  -0.000000   0.000000  -0.000000   0.000000  -0.000000
    40  C    0.010106  -0.000000   0.000000  -0.000000   0.000000   0.000000
    41  H   -0.000014   0.000000  -0.000000   0.000000  -0.000000   0.000000
    42  H    0.000001  -0.000000   0.000000  -0.000000   0.000000  -0.000000
    43  H   -0.000001   0.000000   0.000000  -0.000000   0.000000   0.000000
    44  H    0.000031   0.000000  -0.000000   0.000000  -0.000000   0.000000
              25         26         27         28         29         30
     1  C    0.000000   0.000000  -0.000000  -0.000000   0.000000  -0.000523
     2  C    0.000000   0.000000   0.000000  -0.000002  -0.000000  -0.005530
     3  C   -0.000000   0.000000   0.000000   0.000000  -0.000000   0.004709
     4  C    0.000000   0.000000   0.000000   0.000000   0.000000  -0.000153
     5  C   -0.000000   0.000000  -0.000000   0.000000   0.000000   0.000041
     6  C    0.000000   0.000000  -0.000000   0.000000   0.000000   0.000065
     7  C    0.000000   0.000000   0.000049  -0.000888  -0.000003  -0.013316
     8  C    0.000000   0.000000   0.000001  -0.000000   0.000000   0.039859
     9  C    0.000000   0.000009   0.002257  -0.028495  -0.000216  -0.033595
    10  C   -0.000000   0.000000  -0.000000   0.000002  -0.000000   0.038467
    11  C    0.000085   0.000353   0.039643  -0.335000  -0.005135   0.021981
    12  C   -0.000000  -0.000000  -0.000001  -0.000000  -0.000000  -0.043927
    13  C    0.000942   0.021658   0.080709   0.251157  -0.068802   0.072846
    14  C   -0.000000  -0.000000   0.000000  -0.000000  -0.000000  -0.028096
    15  H    0.000000   0.000000  -0.000000   0.000000  -0.000000   0.000150
    16  H   -0.000000   0.000000   0.000000  -0.000000  -0.000000   0.000143
    17  H    0.000000  -0.000000   0.000000  -0.000000  -0.000000  -0.000005
    18  H   -0.000000   0.000000   0.000000  -0.000000  -0.000000  -0.000004
    19  Co   0.000041  -0.000153   0.004709  -0.005530  -0.000523  -1.344458
    20  H   -0.039530   0.003919   0.001198   0.001869  -0.035998  -0.000050
    21  H    0.004111   0.000486   0.003946  -0.035891   0.355035   0.000527
    22  H    0.358212  -0.036581   0.002449   0.000873   0.004326  -0.000023
    23  H   -0.043361   0.354060  -0.032656   0.004299   0.000595   0.001240
    24  C    0.513275  -0.023006  -0.039605  -0.006260   0.501204  -0.000523
    25  C    4.897204   0.505871  -0.010424  -0.034825  -0.029555  -0.000474
    26  C    0.505871   5.059983   0.502643  -0.048948  -0.057358  -0.003231
    27  C   -0.010424   0.502643   5.218365   0.350360  -0.050448  -0.082526
    28  C   -0.034825  -0.048948   0.350360   5.338839   0.487509   0.025506
    29  C   -0.029555  -0.057358  -0.050448   0.487509   5.007893  -0.000300
    30  Co  -0.000474  -0.003231  -0.082526   0.025506  -0.000300  27.698179
    31  C    0.007369  -0.084166   0.191679  -0.002336   0.015107   0.012371
    32  C   -0.000106  -0.007732  -0.229007   0.034402  -0.000290   0.252364
    33  C   -0.000011  -0.000305  -0.015616   0.001371  -0.000000   0.064935
    34  C   -0.000000  -0.000006  -0.000660   0.000021  -0.000000   0.048182
    35  C   -0.000000  -0.000000  -0.000003   0.000000   0.000000   0.010106
    36  C    0.000000  -0.000000  -0.000000   0.000000   0.000000   0.000420
    37  C   -0.000000  -0.000000   0.000000  -0.000000   0.000000  -0.000014
    38  C   -0.000000  -0.000000  -0.000000   0.000000  -0.000000   0.000012
    39  C    0.000000  -0.000000  -0.000000   0.000000  -0.000000  -0.000287
    40  C    0.000000   0.000000   0.000000  -0.000000  -0.000000  -0.008163
    41  H   -0.000000  -0.000000   0.000000  -0.000000   0.000000   0.000031
    42  H    0.000000   0.000000  -0.000000   0.000000  -0.000000  -0.000001
    43  H   -0.000000  -0.000000   0.000000  -0.000000  -0.000000   0.000001
    44  H   -0.000000   0.000000   0.000000  -0.000000   0.000000  -0.000014
              31         32         33         34         35         36
     1  C    0.000000  -0.000000  -0.000000  -0.000000  -0.000000  -0.000000
     2  C   -0.000000   0.000002  -0.000000  -0.000000  -0.000000   0.000000
     3  C    0.000001  -0.000000  -0.000001   0.000000   0.000000  -0.000000
     4  C    0.000000   0.000000  -0.000000  -0.000000   0.000000  -0.000000
     5  C    0.000000  -0.000000  -0.000000  -0.000000   0.000000   0.000000
     6  C    0.000000  -0.000000   0.000000   0.000000   0.000000  -0.000000
     7  C    0.000113  -0.000090  -0.000041  -0.000002  -0.000000   0.000000
     8  C    0.000077   0.000162  -0.000203  -0.000027   0.000016   0.000000
     9  C    0.002492  -0.001613  -0.000333  -0.000016  -0.000000   0.000000
    10  C    0.000162  -0.001338  -0.000353  -0.000518   0.001702   0.000014
    11  C   -0.000801  -0.008368  -0.000144   0.000006   0.000000  -0.000000
    12  C   -0.000203  -0.000353   0.000714  -0.009591   0.002669   0.000882
    13  C    0.005751  -0.088820  -0.006051  -0.000119  -0.000000  -0.000000
    14  C   -0.000027  -0.000518  -0.009591  -0.033986  -0.030264   0.015482
    15  H    0.000000   0.000000   0.000000   0.000000   0.000000   0.000000
    16  H    0.000000  -0.000000  -0.000000   0.000000   0.000000   0.000000
    17  H   -0.000000   0.000000  -0.000000  -0.000000  -0.000000  -0.000000
    18  H    0.000000  -0.000000  -0.000000  -0.000000  -0.000000  -0.000000
    19  Co   0.039859   0.038467  -0.043927  -0.028096  -0.008163  -0.000287
    20  H    0.000014  -0.000000  -0.000000  -0.000000  -0.000000  -0.000000
    21  H   -0.000233  -0.000001  -0.000000  -0.000000  -0.000000   0.000000
    22  H   -0.000230  -0.000000   0.000000   0.000000   0.000000  -0.000000
    23  H   -0.004300   0.000555  -0.000143  -0.000010  -0.000000  -0.000000
    24  C   -0.000429   0.000005  -0.000000   0.000000   0.000000  -0.000000
    25  C    0.007369  -0.000106  -0.000011  -0.000000  -0.000000   0.000000
    26  C   -0.084166  -0.007732  -0.000305  -0.000006  -0.000000  -0.000000
    27  C    0.191679  -0.229007  -0.015616  -0.000660  -0.000003  -0.000000
    28  C   -0.002336   0.034402   0.001371   0.000021   0.000000   0.000000
    29  C    0.015107  -0.000290  -0.000000  -0.000000   0.000000   0.000000
    30  Co   0.012371   0.252364   0.064935   0.048182   0.010106   0.000420
    31  C    6.120383   0.017958  -0.467790  -0.057317  -0.000820  -0.000007
    32  C    0.017958   7.380105  -0.073825  -0.826899  -0.030384  -0.000264
    33  C   -0.467790  -0.073825   6.774754  -0.025550  -0.320541   0.006240
    34  C   -0.057317  -0.826899  -0.025550   6.670382   0.433421  -0.044111
    35  C   -0.000820  -0.030384  -0.320541   0.433421   5.060777   0.452005
    36  C   -0.000007  -0.000264   0.006240  -0.044111   0.452005   5.047527
    37  C    0.000000   0.000004  -0.000059   0.005044  -0.019177   0.493053
    38  C   -0.000000  -0.000000   0.000016   0.000462  -0.034904  -0.024319
    39  C    0.000000   0.000014   0.000882   0.015482  -0.037642  -0.061574
    40  C    0.000016   0.001702   0.002669  -0.030264   0.499018  -0.037642
    41  H   -0.000001  -0.000063  -0.000760  -0.002921  -0.035047   0.353789
    42  H   -0.000000  -0.000000  -0.000002  -0.000231   0.003306  -0.036734
    43  H    0.000000  -0.000000  -0.000000  -0.000003   0.000721   0.004136
    44  H   -0.000000  -0.000000  -0.000013  -0.000276   0.004250   0.000504
              37         38         39         40         41         42
     1  C   -0.000000   0.000000   0.000000   0.000000   0.000000  -0.000000
     2  C    0.000000  -0.000000   0.000000   0.000000  -0.000000  -0.000000
     3  C   -0.000000   0.000000  -0.000000  -0.000003   0.000000   0.000000
     4  C   -0.000000  -0.000000  -0.000000  -0.000000   0.000000  -0.000000
     5  C   -0.000000  -0.000000   0.000000  -0.000000  -0.000000  -0.000000
     6  C   -0.000000   0.000000  -0.000000   0.000000   0.000000   0.000000
     7  C   -0.000000   0.000000  -0.000000  -0.000000   0.000000  -0.000000
     8  C   -0.000000   0.000000  -0.000007  -0.000820  -0.000000   0.000000
     9  C    0.000000  -0.000000  -0.000000   0.000000  -0.000000  -0.000000
    10  C   -0.000000   0.000004  -0.000264  -0.030384  -0.000000  -0.000000
    11  C   -0.000000   0.000000   0.000000  -0.000000  -0.000000   0.000000
    12  C    0.000016  -0.000059   0.006240  -0.320541  -0.000013  -0.000000
    13  C    0.000000  -0.000000   0.000000  -0.000000  -0.000000   0.000000
    14  C    0.000462   0.005044  -0.044111   0.433421  -0.000276  -0.000003
    15  H   -0.000000  -0.000000   0.000000  -0.000000  -0.000000   0.000000
    16  H   -0.000000  -0.000000  -0.000000  -0.000000  -0.000000   0.000000
    17  H    0.000000   0.000000  -0.000000   0.000000   0.000000  -0.000000
    18  H    0.000000   0.000000  -0.000000  -0.000000   0.000000   0.000000
    19  Co   0.000012  -0.000014   0.000420   0.010106  -0.000014   0.000001
    20  H    0.000000   0.000000  -0.000000  -0.000000   0.000000  -0.000000
    21  H   -0.000000  -0.000000   0.000000   0.000000  -0.000000   0.000000
    22  H    0.000000   0.000000  -0.000000  -0.000000   0.000000  -0.000000
    23  H   -0.000000  -0.000000   0.000000   0.000000  -0.000000   0.000000
    24  C    0.000000  -0.000000  -0.000000   0.000000   0.000000  -0.000000
    25  C   -0.000000  -0.000000   0.000000   0.000000  -0.000000   0.000000
    26  C   -0.000000  -0.000000  -0.000000   0.000000  -0.000000   0.000000
    27  C    0.000000  -0.000000  -0.000000   0.000000   0.000000  -0.000000
    28  C   -0.000000   0.000000   0.000000  -0.000000  -0.000000   0.000000
    29  C    0.000000  -0.000000  -0.000000  -0.000000   0.000000  -0.000000
    30  Co  -0.000014   0.000012  -0.000287  -0.008163   0.000031  -0.000001
    31  C    0.000000  -0.000000   0.000000   0.000016  -0.000001  -0.000000
    32  C    0.000004  -0.000000   0.000014   0.001702  -0.000063  -0.000000
    33  C   -0.000059   0.000016   0.000882   0.002669  -0.000760  -0.000002
    34  C    0.005044   0.000462   0.015482  -0.030264  -0.002921  -0.000231
    35  C   -0.019177  -0.034904  -0.037642   0.499018  -0.035047   0.003306
    36  C    0.493053  -0.024319  -0.061574  -0.037642   0.353789  -0.036734
    37  C    4.894619   0.526087  -0.024319  -0.034904  -0.040973   0.359151
    38  C    0.526087   4.894619   0.493053  -0.019177   0.004367  -0.041016
    39  C   -0.024319   0.493053   5.047527   0.452005   0.000504   0.004136
    40  C   -0.034904  -0.019177   0.452005   5.060777   0.004250   0.000721
    41  H   -0.040973   0.004367   0.000504   0.004250   0.569966  -0.005275
    42  H    0.359151  -0.041016   0.004136   0.000721  -0.005275   0.579006
    43  H   -0.041016   0.359151  -0.036734   0.003306  -0.000172  -0.004928
    44  H    0.004367  -0.040973   0.353789  -0.035047   0.000018  -0.000172
              43         44
     1  C   -0.000000   0.000000
     2  C    0.000000  -0.000000
     3  C   -0.000000   0.000000
     4  C    0.000000  -0.000000
     5  C    0.000000  -0.000000
     6  C   -0.000000   0.000000
     7  C    0.000000  -0.000000
     8  C   -0.000000  -0.000001
     9  C    0.000000  -0.000000
    10  C   -0.000000  -0.000063
    11  C   -0.000000  -0.000000
    12  C   -0.000002  -0.000760
    13  C   -0.000000   0.000000
    14  C   -0.000231  -0.002921
    15  H    0.000000  -0.000000
    16  H    0.000000  -0.000000
    17  H   -0.000000   0.000000
    18  H   -0.000000   0.000000
    19  Co  -0.000001   0.000031
    20  H    0.000000   0.000000
    21  H    0.000000  -0.000000
    22  H   -0.000000   0.000000
    23  H    0.000000  -0.000000
    24  C    0.000000   0.000000
    25  C   -0.000000  -0.000000
    26  C   -0.000000   0.000000
    27  C    0.000000   0.000000
    28  C   -0.000000  -0.000000
    29  C   -0.000000   0.000000
    30  Co   0.000001  -0.000014
    31  C    0.000000  -0.000000
    32  C   -0.000000  -0.000000
    33  C   -0.000000  -0.000013
    34  C   -0.000003  -0.000276
    35  C    0.000721   0.004250
    36  C    0.004136   0.000504
    37  C   -0.041016   0.004367
    38  C    0.359151  -0.040973
    39  C   -0.036734   0.353789
    40  C    0.003306  -0.035047
    41  H   -0.000172   0.000018
    42  H   -0.004928  -0.000172
    43  H    0.579006  -0.005275
    44  H   -0.005275   0.569966
 Mulliken charges:
               1
     1  C   -0.123040
     2  C    0.001968
     3  C    0.062938
     4  C   -0.187497
     5  C   -0.128825
     6  C   -0.144283
     7  C   -0.419830
     8  C    0.205307
     9  C    0.285466
    10  C   -0.456070
    11  C    0.285466
    12  C    0.113679
    13  C   -0.419830
    14  C   -0.112397
    15  H    0.150186
    16  H    0.150768
    17  H    0.138078
    18  H    0.138354
    19  Co   0.273081
    20  H    0.138354
    21  H    0.150186
    22  H    0.138078
    23  H    0.150768
    24  C   -0.144283
    25  C   -0.128825
    26  C   -0.187497
    27  C    0.062938
    28  C    0.001968
    29  C   -0.123040
    30  Co   0.273081
    31  C    0.205307
    32  C   -0.456070
    33  C    0.113679
    34  C   -0.112397
    35  C    0.048952
    36  C   -0.169114
    37  C   -0.122354
    38  C   -0.122354
    39  C   -0.169114
    40  C    0.048952
    41  H    0.152590
    42  H    0.142043
    43  H    0.142043
    44  H    0.152590
 Sum of Mulliken charges =  -0.00000
 Mulliken charges with hydrogens summed into heavy atoms:
               1
     1  C    0.027146
     2  C    0.001968
     3  C    0.062938
     4  C   -0.036728
     5  C    0.009253
     6  C   -0.005929
     7  C   -0.419830
     8  C    0.205307
     9  C    0.285466
    10  C   -0.456070
    11  C    0.285466
    12  C    0.113679
    13  C   -0.419830
    14  C   -0.112397
    19  Co   0.273081
    24  C   -0.005929
    25  C    0.009253
    26  C   -0.036728
    27  C    0.062938
    28  C    0.001968
    29  C    0.027146
    30  Co   0.273081
    31  C    0.205307
    32  C   -0.456070
    33  C    0.113679
    34  C   -0.112397
    35  C    0.048952
    36  C   -0.016524
    37  C    0.019689
    38  C    0.019689
    39  C   -0.016524
    40  C    0.048952
 Electronic spatial extent (au):  <R**2>=          17420.8595
 Charge=             -0.0000 electrons
 Dipole moment (field-independent basis, Debye):
    X=             -0.0000    Y=             -0.0000    Z=              0.5510  Tot=              0.5510
 Quadrupole moment (field-independent basis, Debye-Ang):
   XX=           -203.2684   YY=           -157.9581   ZZ=           -154.6364
   XY=              0.0000   XZ=             -0.0000   YZ=             -0.0000
 Traceless Quadrupole moment (field-independent basis, Debye-Ang):
   XX=            -31.3141   YY=             13.9962   ZZ=             17.3179
   XY=              0.0000   XZ=             -0.0000   YZ=             -0.0000
 Octapole moment (field-independent basis, Debye-Ang**2):
  XXX=             -0.0000  YYY=             -0.0000  ZZZ=            110.4305  XYY=             -0.0000
  XXY=             -0.0000  XXZ=            -13.5977  XZZ=             -0.0000  YZZ=             -0.0000
  YYZ=            -81.9015  XYZ=             -0.0000
 Hexadecapole moment (field-independent basis, Debye-Ang**3):
 XXXX=           -228.0780 YYYY=         -10112.6022 ZZZZ=          -9962.1890 XXXY=             -0.0000
 XXXZ=              0.0000 YYYX=             -0.0000 YYYZ=             -0.0000 ZZZX=              0.0000
 ZZZY=             -0.0000 XXYY=          -2201.4329 XXZZ=          -2222.5776 YYZZ=          -3455.1181
 XXYZ=             -0.0000 YYXZ=              0.0000 ZZXY=             -0.0000
 N-N= 3.661495989094D+03 E-N=-1.657879935223D+04  KE= 3.900153599205D+03
 Symmetry A1   KE= 1.760633451857D+03
 Symmetry A2   KE= 1.844418969036D+02
 Symmetry B1   KE= 1.975769812146D+02
 Symmetry B2   KE= 1.757501269229D+03
 Unable to Open any file for archive entry.
 1\1\GINC-C0710A-S1\FOpt\RB3LYP\6-31G(d)\C30H12Co2\ADRIAN.GONZALEZS\21-
 Jan-2023\0\\#n B3LYP/6-31G(d) Opt scf=qc\\gy2_Co2_C\\0,1\C,6.313036160
 2,-8.5141471721,0.\C,5.7734484837,-7.2142208926,0.\C,4.3442893031,-7.0
 338420704,0.\C,3.5052920957,-8.1640506562,0.\C,4.0638453831,-9.4353376
 236,0.\C,5.4608550124,-9.6099604186,0.\C,6.505955368,-5.9991484844,0.\
 C,3.9485788795,-5.6646602759,0.\C,7.2112444964,-4.9534225159,0.\C,3.44
 38370929,-4.4543048713,0.\C,7.8954119771,-3.7684096883,0.\C,2.42578131
 83,-3.5311898965,0.\C,8.4483926753,-2.6347484058,0.\C,1.6412399631,-2.
 5911373891,0.\H,7.3906234556,-8.6465228431,0.\H,2.427914856,-8.0298528
 679,0.\H,3.4146727517,-10.306428613,0.\H,5.87662673,-10.6134600639,0.\
 Co,5.2856970073,-4.4221436837,0.\H,12.1298394258,0.2174219451,0.\H,11.
 1834201711,-2.0772062841,0.\H,10.6329654148,2.1960209186,0.\H,8.168014
 0359,1.912290469,0.\C,11.0528973804,0.0757409999,0.\C,10.2031647974,1.
 1982754368,0.\C,8.8229213433,1.0463532993,0.\C,8.2636305908,-0.2453438
 847,0.\C,9.1344228151,-1.3928426365,0.\C,10.5299858357,-1.2101761422,0
 .\Co,6.4725372776,-2.3664760522,0.\C,6.8800291601,-0.5872394926,0.\C,5
 .5794597376,-0.7552979759,0.\C,4.2709908345,-0.3351932906,0.\C,3.06461
 08061,-0.1257867916,0.\C,1.6472552347,-0.1209298787,0.\C,0.920128024,1
 .0824898187,0.\C,-0.4718350079,1.0797430412,0.\C,-1.1710023863,-0.1312
 50371,0.\C,-0.4773996582,-1.3380991116,0.\C,0.9283559763,-1.3660999093
 ,0.\H,1.4680667023,2.019436338,0.\H,-1.0126315506,2.021813282,0.\H,-2.
 2572574183,-0.1339419393,0.\H,-1.0148498135,-2.2811011824,0.\\Version=
 ES64L-G16RevC.02\State=1-A1\HF=-3915.264138\RMSD=2.794e-09\RMSF=7.146e
 -06\Dipole=-0.1877368,0.1083899,0.\Quadrupole=12.2580266,11.0232149,-2
 3.2812415,-1.0693783,0.,0.\PG=C02V [SGV(C30H12Co2)]\\@
 The archive entry for this job was punched.


 WHEN ALL ELSE FAILS, TRY THE BOSS'S SUGGESTION.
 Job cpu time:       0 days 17 hours 12 minutes 22.3 seconds.
 Elapsed time:       0 days  1 hours 13 minutes 51.5 seconds.
 File lengths (MBytes):  RWF=    225 Int=      0 D2E=      0 Chk=     21 Scr=      1
 Normal termination of Gaussian 16 at Sat Jan 21 15:50:56 2023.
